LAMMPS (29 Oct 2020)
Reading data file ...
  orthogonal box = (0.0000000 0.0000000 0.0000000) to (1000.0000 1000.0000 1000.0000)
  3 by 4 by 6 MPI processor grid
  reading atoms ...
  12002 atoms
  scanning bonds ...
  600 = max bonds/atom
  reading bonds ...
  12000 bonds
Finding 1-2 1-3 1-4 neighbors ...
  special bond factors lj:    0.0      0.0      0.0     
  special bond factors coul:  0.0      0.0      0.0     
   600 = max # of 1-2 neighbors
   600 = max # of 1-3 neighbors
  1200 = max # of 1-4 neighbors
  1800 = max # of special neighbors
  special bonds CPU = 0.194 seconds
  read_data CPU = 0.231 seconds
Finding 1-2 1-3 1-4 neighbors ...
  special bond factors lj:    0.0      1.0      1.0     
  special bond factors coul:  0.0      0.0      0.0     
   600 = max # of 1-2 neighbors
   600 = max # of 1-3 neighbors
  1200 = max # of 1-4 neighbors
  1800 = max # of special neighbors
  special bonds CPU = 0.043 seconds
1 atoms in group centroid1
1 atoms in group centroid2
Neighbor list info ...
  update every 1 steps, delay 0 steps, check yes
  max neighbors/atom: 2000, page size: 100000
  master list distance cutoff = 43
  ghost atom cutoff = 43
  binsize = 21.5, bins = 47 47 47
  1 neighbor lists, perpetual/occasional/extra = 1 0 0
  (1) pair lj/expand, perpetual
      attributes: half, newton on
      pair build: half/bin/newton
      stencil: half/bin/3d/newton
      bin: standard
Setting up Verlet run ...
  Unit style    : real
  Current step  : 0
  Time step     : 4.0
Per MPI rank memory allocation (min/avg/max) = 193.8 | 194.0 | 197.0 Mbytes
Step Time KinEng PotEng Temp Press TotEng f_1 f_2[1] f_2[2] f_2[3] f_2[4] f_2[5] f_2[6] f_2[7] 
       0            0    9837.4929     -34496.1          275  0.038604638   -24658.607            0            0            0            0            0    199.98059    199.98059            0 
   20000        80000    9853.0251   -35596.045    275.43419  0.052751346    -25743.02    1073.2724   -3.2754265 0.0083494859 0.0023217423    -3.275438    199.90059    199.80701 -0.0063330369 
   40000       160000     9834.982   -36211.042    274.92981   0.10611662    -26376.06    1697.1826    4.0358351 -0.021198034 -8.5515116e-05    4.0358907    199.82059     199.9359 -0.017124212 
   60000       240000    9897.6633   -36619.773    276.68202 -0.0015509375    -26722.11    2039.9883     4.439442 -0.036575934 0.0013043424    4.4395928    199.74059    199.86744 -0.028520934 
   80000       320000    9846.0498   -36848.787     275.2392 -0.066981343   -27002.737    2318.4162   -1.9331862  0.019018818 -0.00059420458   -1.9332799    199.66059    199.60536 -0.014877928 
  100000       400000    9948.8187   -37085.458    278.11203   0.11515381   -27136.639    2444.7218   -4.2970369  0.050419727 0.0050201055   -4.2973356    199.58059    199.45781 -0.020705131 
  120000       480000    9887.1381   -36973.779     276.3878  0.023060921   -27086.641    2395.9363    3.4839327 -0.048429643 -0.0033578583    3.4842709    199.50059    199.60014 -0.010456031 
  140000       560000    9880.6994   -37364.699    276.20781 0.0077479557       -27484    2789.7367    1.4999154 -0.024618099 -0.0013545938     1.500118    199.42059    199.46345 -0.010226943 
  160000       640000    9993.5834   -37482.597     279.3634  0.060066363   -27489.014     2792.472   -7.8296519   0.14699463 0.0088518143   -7.8310366    199.34059    199.11685 -0.023129353 
  180000       720000    9902.9667   -37680.933    276.83027 -0.064837764   -27777.966    3081.7739    1.2122155 -0.025241302 -0.0022219682    1.2124803    199.26059    199.29523 -0.015362633 
  200000       800000    9883.1248   -37729.092    276.27561  -0.01490522   -27845.967    3148.1002     1.634212 -0.035129828 -0.0048751682    1.6345968    199.18059    199.22729 0.0020823994 
  220000       880000    9869.4249   -37679.999    275.89264  -0.11366201   -27810.574    3112.3615   0.88117185 -0.022629968 -0.0027489558   0.88146668    199.10059    199.12578 -0.024114038 
  240000       960000    9831.8474   -37897.768    274.84218  0.014257254    -28065.92    3364.5419    5.1072734  -0.14438402 -0.020061203    5.1093533    199.02059    199.16657 -0.025461705 
  260000      1040000    10035.784   -37802.571    280.54308 -0.015647256   -27766.787    3066.7815   -1.5019169  0.046730878  0.006902129   -1.5026596    198.94059    198.89766 -0.033737373 
  280000      1120000    9823.2589   -37987.128     274.6021   -0.1195742   -28163.869    3460.4623    2.7113532   -0.0939197 -0.012709692    2.7130092    198.86059    198.93811 -0.013030186 
  300000      1200000    9772.2139   -37961.603    273.17517 -0.022346467   -28189.389    3487.5834   -1.5464705  0.055086637 0.0067868521   -1.5474662    198.78059    198.73638 -0.019976311 
  320000      1280000    9781.2152   -38108.848     273.4268 -0.054425961   -28327.633    3624.7048    6.4428641  -0.24576106 -0.025569837    6.4476003    198.70059    198.88481 -0.012464798 
  340000      1360000    9886.2458   -38045.736    276.36285  0.040680644    -28159.49    3454.7913    4.4219806   -0.1778672  -0.01951784    4.4255994    198.62059    198.74704 -0.011860684 
  360000      1440000    9929.5525   -38075.598    277.57346   0.10485647   -28146.046    3442.5665    1.4078374 -0.060441676 -0.0070289837    1.4091518    198.54059    198.58085 -0.028644965 
  380000      1520000     9954.995   -38052.975    278.28469 -0.032137024    -28097.98     3396.867    1.3310799 -0.060808555 -0.0089442893    1.3324982    198.46059    198.49866 -0.0039598617 
  400000      1600000    9845.7003    -38230.34    275.22943 -0.067032888   -28384.639    3680.6199    4.0005633  -0.18682153 -0.020611739    4.0049762    198.38059    198.49502 -0.012239707 
  420000      1680000    9904.6681   -38376.009    276.87784 -0.047355122   -28471.341    3767.2118   -6.4714814   0.32282034  0.034843094   -6.4796218    198.30059    198.11546 0.0048417877 
  440000      1760000     9924.613   -38205.106    277.43538  -0.17097119   -28280.493    3578.3188   -8.9733509   0.47123059  0.055137013   -8.9858848    198.22059    197.96385  0.011195383 
  460000      1840000    9813.4281   -38109.943    274.32729  0.036287784   -28296.515    3591.9738   -8.1147699   0.44252231  0.044754282   -8.1269502    198.14059    197.90839  0.016995938 
  480000      1920000    9863.2014   -38219.926    275.71866 -0.007323239   -28356.724    3649.6134   -7.8455657   0.45858601  0.050331061    -7.859118    198.06059    197.83605 -0.0079624949 
  500000      2000000    9805.9145   -38281.408    274.11725 -0.0025587169   -28475.494    3769.1082   -8.2610359   0.48186281  0.055166318   -8.2752613    197.98059    197.74416 -0.0091198324 
  520000      2080000    9979.7249   -38230.343    278.97599   0.11304439   -28250.618    3544.7092   -1.2407369  0.077451049 0.0076939936   -1.2431757    197.90059    197.86507 -0.0055199493 
  540000      2160000    9930.0627   -38324.068    277.58772 0.0095233642   -28394.005    3687.4863   -3.0487039   0.19549728  0.019941763   -3.0550307    197.82059    197.73331 0.0056947225 
  560000      2240000    9787.3112   -38468.024    273.59721 -0.045293326   -28680.713    3974.5958   -2.5271306   0.17004115  0.016803777   -2.5329006    197.74059    197.66822  0.015680266 
  580000      2320000    9869.9409   -38485.622    275.90706   0.08712469   -28615.681    3906.8124   -3.3418632    0.2325892  0.025824631   -3.3500469    197.66059    197.56488  0.016192937 
  600000      2400000    9997.7382   -38335.145    279.47954 -0.040183106   -28337.407    3631.0024    -1.279194  0.092666906 0.0094882719   -1.2825811    197.58059    197.54395 -0.013113656 
  620000      2480000    9796.1509   -38419.158    273.84431    -0.073079   -28623.007    3914.6894    4.6237673  -0.34289103 -0.039253636    4.6366302    197.50059    197.63307 -0.006535104 
  640000      2560000    9923.0229   -38375.701    277.39093  0.051696866   -28452.678    3745.8911   0.20925209 -0.016068441 -0.0016379888   0.20987453    197.42059    197.42659  -0.02255083 
  660000      2640000    9909.2643   -38464.096    277.00632  0.034103925   -28554.831    3847.8833    5.8318764  -0.46305212 -0.047150332    5.8504207    197.34059    197.50775  -0.02441896 
  680000      2720000    9971.4044   -38436.922     278.7434  0.028836071   -28465.517    3758.8152   -1.2326096   0.10258774 0.0092479421   -1.2369059    197.26059    197.22525 -0.024596881 
  700000      2800000     9901.544   -38499.953     276.7905  0.021326914   -28598.409    3889.4013    4.0646517  -0.34111769 -0.037547213    4.0791132    197.18059    197.29714 -0.024649923 
  720000      2880000    9751.3883   -38425.386    272.59301   0.13660623   -28673.998    3966.4609    3.2710028  -0.28562484 -0.027966636    3.2835686    197.10059    197.19441 0.0052243132 
  740000      2960000    9807.8543   -38528.099    274.17147 -0.032226571   -28720.244    4011.9422   0.67907756 -0.060889655 -0.0060259289   0.68182857    197.02059    197.04007 0.0098255695 
  760000      3040000    9871.6304   -38592.909    275.95429  0.054787386   -28721.278    4011.8393   -4.8206529   0.44170126  0.049957578   -4.8411043    196.94059    196.80227 -0.0020123546 
  780000      3120000    9881.9184   -38589.537    276.24188 -0.030283153   -28707.619    4000.0889   -4.9915951   0.46861351  0.050401957   -5.0137971    196.86059    196.71734 0.0013310767 
  800000      3200000    9761.9049   -38674.491    272.88699  -0.10059487   -28912.586    4202.7334   -4.0677062   0.38937965  0.040481095   -4.0865009    196.78059    196.66383 0.0026556708 
  820000      3280000    9801.6873   -38437.374    273.99908 -0.016002037   -28635.687    3928.4228   -3.0824514   0.30552945  0.031574267   -3.0977172    196.70059    196.61209 -0.014017309 
  840000      3360000     9845.771   -38787.515    275.23141 -0.066445442   -28941.744    4233.7731    -3.789153   0.38552469  0.039031427   -3.8089149    196.62059    196.51177  0.014500134 
  860000      3440000    9877.5702   -38664.064    276.12033   0.11001869   -28786.494    4077.0926   -2.5412424       0.2668   0.02904923   -2.5553745    196.54059    196.46758  0.019037853 
  880000      3520000    9914.8193   -38677.929    277.16161 -0.041810339    -28763.11    4055.2327    1.0575302  -0.11191342  -0.01415851    1.0635296    196.46059    196.49098  0.015170596 
  900000      3600000    9941.0838   -38686.219    277.89581 -0.040620867   -28745.136    4036.8335   -1.0783111   0.11693741  0.011697119   -1.0846963    196.38059     196.3496 -0.012127586 
  920000      3680000    9751.8449   -38688.638    272.60577 0.0084046306   -28936.793    4227.0976    1.8631363  -0.20578396 -0.023212482    1.8746101    196.30059    196.35415 -0.0072992988 
  940000      3760000    9796.6783   -38787.095    273.85906  0.099984562   -28990.417    4277.5415   -4.0601214   0.45694428  0.053138456   -4.0860993    196.22059    196.10385 -0.0022641474 
  960000      3840000    9941.2093   -38631.569    277.89932  0.061250495    -28690.36    3980.5934    2.7082935  -0.31387681 -0.034537739    2.7266399    196.14059     196.2185 0.0035760515 
  980000      3920000    9824.1083   -38627.874    274.62584 -0.076031356   -28803.766    4091.7917    13.644398   -1.6072428  -0.17173234    13.739808    196.06059    196.45316 -0.017698115 
 1000000      4000000    9772.4334   -38701.017    273.18131  0.096091544   -28928.583    4217.6136  -0.15496485   0.01852381  0.002067981  -0.15608175    195.98059    195.97613 -0.028443959 
 1020000      4080000    9953.3274   -38551.433    278.23807   0.10095336   -28598.105    3887.9669   -11.527075    1.4153181   0.17113508   -11.614899    195.90059    195.56874 -0.033139426 
 1040000      4160000    9887.3196   -38694.624    276.39287 0.0048080727   -28807.304    4097.1693   -6.3615943   0.79931418  0.091997924   -6.4122733    195.82059    195.63738 -0.016742246 
 1060000      4240000    9815.7799   -38666.795    274.39303   0.12749799   -28851.015    4141.1099            0            0            0            0    195.74059    195.74044 0.0052634668 
 1080000      4320000     9888.692    -38665.15    276.43124 -0.031834532   -28776.458    4068.4388   -2.1586255    0.2786391    0.0315502   -2.1767635    195.66059     195.5984 -0.0031040238 
 1100000      4400000    9937.1316   -38792.131    277.78533  -0.10473042   -28854.999    4145.0797    1.6043633  -0.21157986 -0.025236731    1.6184512    195.58059    195.62683 -0.0073630644 
 1120000      4480000    9841.2197   -38775.795    275.10418 -0.069535455   -28934.575    4227.8531    2.3765408  -0.32017601 -0.036967672    2.3982964    195.50059    195.56911 -0.0044572753 
 1140000      4560000    9970.7446   -38488.284    278.72496 -0.080093283   -28517.539     3811.517   -2.7788484   0.38065855  0.046320637   -2.8051818    195.42059    195.34044 -0.0072199772 
 1160000      4640000    9810.7766   -38619.822    274.25316 -0.078486395   -28809.045    4100.6379   -5.9053649   0.81874069   0.10373993   -5.9627538    195.34059    195.17023 -0.0068655086 
 1180000      4720000    9798.5521   -38637.371    273.91144   -0.2147642   -28838.819    4131.1559   -4.2931805   0.60678307  0.072679028   -4.3364579    195.26059    195.13669 -0.0047398383 
 1200000      4800000    9836.0008   -38415.166    274.95829 -0.00019701797   -28579.165    3870.0373    5.9912287  -0.85897796   -0.1108423    6.0535072    195.18059    195.35355 -0.005901938 
 1220000      4880000    9867.5423   -38704.688    275.84001   0.10060679   -28837.145    4125.3488     3.913793  -0.57110893 -0.070486277    3.9558702    195.10059    195.21362 -0.021289384 
 1240000      4960000    9865.3458   -38694.178    275.77861  0.077112998   -28828.832    4119.6205    3.1262607  -0.46626861 -0.058487439    3.1613816    195.02059    195.11092 -0.029411615 
 1260000      5040000    9803.5184   -38736.342    274.05027  -0.10162775   -28932.824    4222.3639    4.6332427  -0.70227752  -0.08890683    4.6870071    194.94059    195.07451 -0.021782507 
 1280000      5120000     9678.871   -38742.835    270.56584  0.066151027   -29063.964    4352.1628    4.5102454  -0.69516911 -0.087468351    4.5643427    194.86059      194.991 -0.024536962 
 1300000      5200000     9852.383   -38820.465    275.41624  0.085416059   -28968.082    4256.5786  -0.16663694  0.026159057 0.0033029296  -0.16871003    194.78059    194.77577 -0.016867789 
 1320000      5280000    9748.8588   -38696.683     272.5223  0.025966122   -28947.824    4238.2313    1.9379807  -0.30823513 -0.038893682    1.9627253    194.70059    194.75667 -0.022242785 
 1340000      5360000    9850.3223   -38643.411    275.35864   0.02160122   -28793.089    4083.0295    2.5254483  -0.40789678 -0.054707227    2.5587617    194.62059     194.6937 -0.021338439 
 1360000      5440000    9875.9862   -38854.017    276.07605  0.064434345   -28978.031    4266.3701  0.063226703 -0.010393903 -0.0012998789  0.064088524    194.54059    194.54242 -0.0031012666 
 1380000      5520000    9850.0364   -38713.388    275.35065 -0.030044277   -28863.351    4155.5461    6.7580079   -1.1185657  -0.14543218     6.851497    194.46059    194.65635  0.017079572 
 1400000      5600000    9832.2557   -38670.514     274.8536   0.07612412   -28838.259    4127.3214    3.6039335  -0.60842909 -0.076215215    3.6557258    194.38059    194.48504 0.0053699937 
 1420000      5680000    9839.0328   -38758.607    275.04305   0.03942037   -28919.574    4209.2376    3.6851634  -0.62992535 -0.084118921    3.7395603    194.30059    194.40744  0.000410897 
 1440000      5760000    9916.8224   -38722.368     277.2176  0.068716179   -28805.546    4095.2253    5.0709317  -0.88323957  -0.11746053     5.148617    194.22059    194.36769 -0.015074533 
 1460000      5840000    9665.4495   -38677.014    270.19065 -0.053963789   -29011.565    4304.2896   0.11441732   -0.0202157 -0.0024787368   0.11621592    194.14059    194.14391 -0.0063643048 
 1480000      5920000    9858.9041   -38879.356    275.59853  0.066804437   -29020.452    4308.5923    1.2203448   -0.2180313 -0.027177217    1.2399668    194.06059    194.09602 0.00049731731 
 1500000      6000000    9808.4037   -38860.061    274.18683    0.0986397   -29051.657    4338.2203    9.5004365   -1.7135194  -0.20976116    9.6560055    193.98059    194.25648 -0.0085889911 
 1520000      6080000    9744.9386   -39020.572    272.41271 -0.036239943   -29275.633    4563.4726     6.389637   -1.1673374  -0.15241332    6.4971815    193.90059    194.08623 0.00030448055 
 1540000      6160000    9813.1155   -38817.921    274.31855   0.12027307   -29004.806     4293.871    2.3336221  -0.43286275 -0.057144326    2.3741162    193.82059    193.88842 -0.015676733 
 1560000      6240000    9965.1458   -38850.025    278.56845  0.069199407   -28884.879    4173.1916   -5.0249813   0.94387227   0.12071034   -5.1142842    193.74059    193.59447 -0.010744113 
 1580000      6320000    9760.5655   -38818.492    272.84955   0.01707674   -29057.927    4347.3307    3.1375851  -0.59451306 -0.078002603    3.1943654    193.66059    193.75186 -0.018443372 
 1600000      6400000    9828.0028   -38845.753    274.73471  0.035755675    -29017.75    4307.3996    3.1781206  -0.61278081 -0.075836558    3.2375457    193.58059    193.67309 -0.0068801536 
 1620000      6480000    9870.2017    -38865.07    275.91435   0.11842003   -28994.868    4281.7871   -1.6666367   0.32481087  0.040539911   -1.6984768    193.50059    193.45206  0.029367831 
 1640000      6560000    9865.1567   -38874.555    275.77332  0.044764475   -29009.398     4297.679   0.34246101  -0.06769495 -0.0087956579   0.34919838    193.42059    193.43057 -0.0091480005 
 1660000      6640000    9810.3088   -38794.766    274.24009 -0.0019666825   -28984.457    4273.5059    4.9598854  -0.99150812  -0.12605981    5.0595891    193.34059    193.48515  0.023038883 
 1680000      6720000    9855.4787   -38705.752    275.50278 -0.046674174   -28850.273    4140.8791    4.5365622  -0.91750155  -0.11261452    4.6297827    193.26059    193.39287  0.012767332 
 1700000      6800000    9783.0908   -38956.465    273.47923 -0.013657785   -29173.374    4463.9536    4.9319491   -1.0132751  -0.12679835     5.036559    193.18059    193.32449 -0.014038831 
 1720000      6880000     9882.593   -38787.459    276.26074 -0.016617636   -28904.866    4194.7391     2.135681   -0.4435376 -0.057379968    2.1820062    193.10059    193.16293 -0.017812148 
 1740000      6960000    9908.4532   -38736.024    276.98365 0.0015918088   -28827.571    4118.2552   0.51388781  -0.10803739 -0.013601293   0.52529777    193.02059     193.0356 -0.012454942 
 1760000      7040000     9962.513   -38921.781    278.49485   0.15006998   -28959.268    4245.9426   -2.4707105   0.52653708  0.066221751   -2.5270609    192.94059    192.86839 -0.021251211 
 1780000      7120000    9863.4442   -38843.015    275.72545  0.075188713    -28979.57    4266.6838   -3.3533011   0.72851925  0.093303843   -3.4327939    192.86059    192.76251 -0.011369569 
 1800000      7200000    9807.3503   -38860.776    274.15739 -0.059362174   -29053.425    4343.0465    3.0311918  -0.66513385 -0.080793524    3.1043605    192.78059    192.86929  -0.03165777 
 1820000      7280000    9932.9585   -38817.125    277.66867  -0.10026279   -28884.167    4173.1813    6.1660515   -1.3667725  -0.16817214    6.3179538    192.70059     192.8811 -0.029701237 
 1840000      7360000    9820.1081   -39016.419    274.51402 -0.014294765    -29196.31    4485.3734    3.4008553  -0.76213919  -0.09530357    3.4865105    192.62059    192.72021 -0.037628552 
 1860000      7440000    9932.6207    -38859.24    277.65923 -0.096272404   -28926.619    4217.8886   -1.6315063   0.37095262  0.044919887   -1.6737492    192.54059    192.49277 -0.016622572 
 1880000      7520000     9837.867   -38891.148    275.01046  -0.17942348   -29053.281    4344.4141   -2.7196634    0.6237707  0.077853303   -2.7913653    192.46059    192.38084 0.0032174865 
 1900000      7600000    9877.2481   -38851.779    276.11133 0.0080977648   -28974.531    4262.8812   -6.8914871    1.5958959   0.19866352   -7.0766478    192.38059     192.1784 -0.010923478 
 1920000      7680000    9719.9941   -38823.322    271.71541 -0.0044764387   -29103.328    4390.1154   -6.9090216     1.618454   0.20431609   -7.0989941    192.30059    192.09776 -0.023513381 
 1940000      7760000    9810.4396   -39010.601    274.24374  0.070280109   -29200.161    4485.9471   -2.8066573   0.66783098  0.083152871   -2.8862151    192.22059    192.13813 -0.028840493 
 1960000      7840000    9856.7314   -38915.563     275.5378 0.0096746771   -29058.831    4347.5819   -1.9110768   0.46025716  0.056561591   -1.9665326    192.14059    192.08441 -0.0096393224 
 1980000      7920000     9758.477   -38758.057    272.79117  0.055501162    -28999.58    4288.2581    7.4276827   -1.8111789  -0.22843602    7.6487268    192.06059    192.27913 -0.021769003 
 2000000      8000000    9861.6958    -38894.22    275.67657  0.072292522   -29032.524    4320.3022   -3.5196177   0.86556323   0.10907763   -3.6261283    191.98059    191.87699 -0.011083793 
 2020000      8080000    9881.7018   -38962.548    276.23583  0.078826942   -29080.846    4368.6395   -4.8080472    1.1926704   0.15090997   -4.9560624    191.90059    191.75899 -0.021816821 
 2040000      8160000    9744.4181   -38829.159    272.39816   0.10290067   -29084.741     4371.133   -5.5227685    1.3917473    0.1814453   -5.6983203    191.82059    191.65778  0.010145891 
 2060000      8240000    9694.9041   -38955.152    271.01403  0.026547742   -29260.247    4544.9743    2.5670013  -0.65469443 -0.082728967     2.650465    191.74059    191.81632 0.0092070587 
 2080000      8320000    9820.1069   -38915.393    274.51399   0.14444217   -29095.287    4380.9369   -3.7566682   0.96548316   0.12748056   -3.8808459    191.66059    191.54971 0.0028983705 
 2100000      8400000    9792.6587   -39052.521    273.74669 -0.039199715   -29259.862    4546.1372   -1.4421415   0.37323388   0.04795085   -1.4904277    191.58059    191.53801 -0.0027629287 
 2120000      8480000    9828.1163   -39059.805    274.73788    0.1588038   -29231.688     4516.075   -6.3828509    1.6731509   0.21322968   -6.6019457    191.50059    191.31196 -0.0097793994 
 2140000      8560000    9928.0772   -39095.444    277.53222   0.12318556   -29167.367    4449.7334   -10.209642    2.7100147   0.34541842   -10.568836    191.42059    191.11862  0.014124155 
 2160000      8640000    9705.5828   -38959.735    271.31255  0.074951461   -29254.152    4541.1799   -7.0957659    1.8947076    0.2488077    -7.348586    191.34059    191.13063 -0.0061525228 
 2180000      8720000    9821.2403   -39069.122    274.54567  0.019327561   -29247.881    4534.4581    -7.171443    1.9378726   0.26117012   -7.4332466    191.26059    191.04821 0.0056331595 
 2200000      8800000    9706.9883   -38800.857    271.35184   0.04392717   -29093.869    4382.0108   -3.2259952   0.87957572   0.11412057    -3.345702    191.18059      191.085  0.016376449 
 2220000      8880000    9818.8331    -38825.18    274.47838  0.095995581   -29006.347    4295.7432   -3.7116411    1.0230641   0.13587893   -3.8524541    191.10059    190.99052 -0.009256739 
 2240000      8960000    9778.2625   -38855.957    273.34426 -0.045802761   -29077.695     4365.966    3.3203457  -0.92664836  -0.12214159      3.44939    191.02059    191.11915 -0.040886482 
 2260000      9040000    9966.8991    -38930.16    278.61746   0.01550445   -28963.261    4250.8076    1.2893023   -0.3634554 -0.047974842     1.340411    190.94059    190.97889 -0.044719686 
 2280000      9120000    9756.0288   -38983.085    272.72273  0.039684915   -29227.057    4514.6865   -2.6886838   0.76634054   0.10201637   -2.7976251    190.86059    190.78066 -0.023789198 
 2300000      9200000    10000.617   -38894.289    279.56001 -0.0047977367   -28893.672    4181.1325    5.3846814   -1.5476052  -0.20414449    5.6063848    190.78059    190.94077  -0.01928505 
 2320000      9280000    9951.6172   -38742.457    278.19026  0.043315456   -28790.839    4080.1322    3.7151843    -1.078164  -0.14633548    3.8712332    190.70059     190.8112 -0.0065940378 
 2340000      9360000    9935.5754   -38925.357    277.74183  -0.10689581   -28989.781    4279.0474 -0.057219747  0.016721193 0.0023351606 -0.059658618    190.62059    190.61889 0.0059136933 
 2360000      9440000    9996.5973   -38753.822    279.44765  0.023898524   -28757.225    4046.3697    1.4443675   -0.4258849 -0.058518259    1.5069837    190.54059    190.58365 0.0041123972 
 2380000      9520000    9827.9562   -38988.424    274.73341  0.030793862   -29160.468    4447.6058   -1.7371897   0.51541362  0.072842111   -1.8135008    190.46059    190.40878 0.0042143392 
 2400000      9600000    9919.7251   -38967.288    277.29874 -0.049900147   -29047.563    4337.5295     1.800957  -0.54275893 -0.076660611    1.8825276    190.38059    190.43438 -0.00098953855 
 2420000      9680000     9924.958   -38948.806    277.44503  -0.12198775   -29023.848    4315.2539   -4.7104447    1.4296954   0.20263071   -4.9268019    190.30059    190.15983 -0.042144379 
 2440000      9760000    9697.2653   -38883.126    271.08004 -0.062170519   -29185.861    4476.0096   -3.8392297    1.1796687   0.16401901    -4.019727    190.22059    190.10574 -0.031819196 
 2460000      9840000    9832.7747   -38936.958    274.86811  -0.12330543   -29104.184    4391.2037    2.0177148  -0.62483635 -0.088469349    2.1141004    190.14059    190.20099 -0.016779858 
 2480000      9920000    9768.8374   -39035.225    273.08079  -0.11245169   -29266.387    4555.4555      2.51512   -0.7818771  -0.11300076    2.6362719    190.06059    190.13591 -0.0033657797 
 2500000     10000000     9955.526   -39067.107    278.29953 -0.045568411   -29111.581    4399.1928     5.038093   -1.5783159  -0.22545288     5.284344    189.98059    190.13157  -0.01531347 
 2520000     10080000     9748.939    -39170.62    272.52454  -0.10343188   -29421.681     4708.382    4.4843879   -1.4177632  -0.20382752    4.7075825    189.90059    190.03509 -0.010987635 
 2540000     10160000    9858.9393   -39069.127    275.59952  0.038846766   -29210.188    4496.7272   -0.7694674   0.24563971  0.034830845  -0.80847519    189.82059    189.79749  -0.00641878 
 2560000     10240000    9852.7731   -38879.858    275.42715 0.0050314705   -29027.085     4313.777    1.6078236  -0.51831411  -0.07242447    1.6908553    189.74059     189.7889 0.0037561757 
 2580000     10320000    9834.0165   -39075.663    274.90282 -0.027877474   -29241.646    4529.8229    2.8599621  -0.92602805  -0.13631598    3.0092346    189.66059    189.74657 -0.0073133668 
 2600000     10400000    9846.0688   -39052.983    275.23973 -0.011729073   -29206.915    4493.7846   0.32087217   -0.1045467 -0.015519717   0.33783105    189.58059    189.59024 0.0098384914 
 2620000     10480000    9750.2763   -38807.326    272.56192  0.028464156    -29057.05    4345.0162   -3.5104429    1.1563234   0.16745394   -3.6997748    189.50059    189.39488 -0.0007423855 
 2640000     10560000    9884.9721    -39181.96    276.32725  0.064432907   -29296.988    4580.7877    10.432754    -3.459962  -0.51377484    11.003529    189.42059    189.73498 0.0018006614 
 2660000     10640000    9790.6912   -39036.067    273.69169  -0.10155762   -29245.376    4533.4594  -0.85198502   0.28545749    0.0422465  -0.89952722    189.34059    189.31489 -0.0093257952 
 2680000     10720000     9869.777   -38976.368    275.90248 -0.017424701   -29106.591     4392.284  -0.57296433   0.19319875  0.028903772  -0.60535057    189.26059     189.2433 -0.009084796 
 2700000     10800000    9753.3662    -38990.67     272.6483 -0.086672559   -29237.304    4526.1446    6.8968275   -2.3420664   -0.3479762    7.2919539    189.18059    189.38893 -0.015458396 
 2720000     10880000     9775.864   -38945.463    273.27721 -0.097440533   -29169.599    4458.5292    2.5140388  -0.86368196  -0.12801913    2.6613393    189.10059    189.17663 -0.019612705 
 2740000     10960000    9922.2927   -39048.335    277.37052 -0.023347356   -29126.043    4415.8776    4.4364352    -1.535031  -0.23424078    4.7003347    189.02059    189.15489 -0.024389468 
 2760000     11040000    9779.5646   -38839.834    273.38066  -0.04569101   -29060.269    4348.5249     5.551917   -1.9260643  -0.29807218    5.8840762    188.94059    189.10871 -0.027234342 
 2780000     11120000    9915.6223   -39021.201    277.18405 -0.066377972   -29105.579    4393.0382   -2.1128965   0.74286577   0.11349416    -2.242557    188.86059    188.79652 -0.016901399 
 2800000     11200000    9904.4804   -39054.121    276.87259 -0.042856654    -29149.64    4437.1947    10.126766   -3.5807547   -0.5390688     10.75471    188.78059    189.08787 -0.0028910332 
 2820000     11280000    9756.1308   -39066.391    272.72558   0.11264143    -29310.26    4596.5449  0.054237205 -0.019276259 -0.002924488  0.057635069    188.70059    188.70224 -0.011592829 
 2840000     11360000    9748.3061   -39014.728    272.50685  0.046910136   -29266.422    4553.6415   0.65570706  -0.23469059 -0.035828253   0.69736295    188.62059    188.64052 -0.024252841 
 2860000     11440000    9989.7386   -38981.899    279.25592  0.020543489    -28992.16    4278.8285   -3.5324866    1.2732009    0.1957268    -3.760028    188.54059    188.43316  -0.02152307 
 2880000     11520000    9814.3062   -38964.741    274.35183 -0.061225849   -29150.435    4440.0355   -5.0305976    1.8284535   0.28259736   -5.3600388    188.46059    188.30745 -0.028233699 
 2900000     11600000    9767.2685   -39189.599    273.03693 -0.014347395   -29422.331    4707.3297   -9.6924177    3.5561488    0.5503213   -10.338859    188.38059     188.0852  -0.04748554 
 2920000     11680000    9769.6579   -38935.555    273.10372  0.018058938   -29165.897    4454.1785   0.47041858  -0.17384248 -0.026451211   0.50220963    188.30059    188.31494 -0.033402218 
 2940000     11760000    9891.5311   -39032.845     276.5106  0.080357939   -29141.313    4427.5396  -0.21794563  0.081122855  0.012206548  -0.23287382    188.22059    188.21394 0.0038426561 
 2960000     11840000    9880.4026   -38940.327    276.19951 -0.049635293   -29059.924    4346.5526   0.26346893 -0.098717314 -0.014889118   0.28174931    188.14059    188.14864 -0.0090652222 
 2980000     11920000     9901.969    -39058.58    276.80238   0.01502512   -29156.611     4442.315   -4.1414661    1.5634793   0.23791461   -4.4331493    188.06059    187.93393 -0.0039316808 
 3000000     12000000    9717.1952    -39240.24    271.63716 -0.053319544   -29523.045    4805.8209     2.920686   -1.1102102   -0.1685731    3.1291198    187.98059       188.07 0.0059253556 
 3020000     12080000    9933.0508   -39122.326    277.67125  0.046407397   -29189.275     4474.279    1.3185834  -0.50475822 -0.077387646    1.4140127    187.90059    187.94099  0.018878535 
 3040000     12160000    9742.3466   -39160.274    272.34025 -0.042498947   -29417.927    4704.8767   -2.1048326   0.80798193   0.12343751   -2.2579619    187.82059    187.75608  0.014729854 
 3060000     12240000    9848.2985   -39185.907    275.30206  -0.04514768   -29337.609     4623.997  -0.82939178   0.32036139  0.049018324  -0.89046334    187.74059    187.71515  0.013669348 
 3080000     12320000    9779.7027   -39170.107    273.38452  0.066436179   -29390.404    4674.9079   -8.2083357    3.2147981   0.49380614   -8.8292438    187.66059    187.40833 0.0084052705 
 3100000     12400000     9837.365   -39009.026    274.99643  0.016559068   -29171.661    4458.0199   -3.0985055    1.2191984   0.18763229   -3.3350243    187.58059    187.48531 -0.013051265 
 3120000     12480000    9747.7641   -38937.177     272.4917 -0.026952365   -29189.412    4477.7634    4.3947035   -1.7390291  -0.26984105    4.7339683    187.50059    187.63585 -0.0055835471 
 3140000     12560000    9737.3729   -39087.984    272.20122  0.019307454   -29350.611     4637.072   -2.1530536   0.86072182   0.13370195   -2.3225757    187.42059    187.35423 0.0066446857 
 3160000     12640000    9792.6739   -39028.297    273.74712  0.046951817   -29235.623    4522.2785    1.5480759   -0.6243309 -0.093326691    1.6718367    187.34059    187.38836 -0.0023015607 
 3180000     12720000    9823.0301   -39121.752     274.5957  0.010781686   -29298.722    4585.5738  0.039341265 -0.015946427 -0.0024289877  0.042519685    187.26059    187.26181 0.0088423766 
 3200000     12800000    9898.2519   -39103.414    276.69848 0.0008578543   -29205.162    4491.2381  -0.96257779   0.39310839  0.060123448   -1.0414917    187.18059    187.15083  -0.01756632 
 3220000     12880000    9926.7209   -39071.798    277.49431 -0.014896538   -29145.077    4432.9716    7.6650414   -3.1580784  -0.48365998    8.3042306    187.10059    187.33786 -0.015513496 
 3240000     12960000    9891.0631   -39284.039    276.49752 -0.039782251   -29392.976    4678.6664    1.3247617  -0.54951843 -0.084472671    1.4366975    187.02059    187.06164 -0.014038245 
 3260000     13040000    9826.0261   -38873.094    274.67946 -0.00028053453   -29047.067    4337.2902   -3.6238787    1.5093947   0.23074384   -3.9324308    186.94059    186.82824 0.0083482194 
 3280000     13120000    9940.0934   -39004.321    277.86812 -0.013600137   -29064.227    4352.2619    -6.823191    2.8658373   0.44118874   -7.4137444    186.86059    186.64877 -0.0095730598 
 3300000     13200000    9864.0054   -39204.281    275.74114 -0.016865952   -29340.276    4627.5128   -3.0725419    1.3017532   0.19801695   -3.3427961    186.78059    186.68508  -0.05026168 
 3320000     13280000    9843.4756   -39215.838    275.16724  0.092897346   -29372.363    4656.0278   -1.9837728    0.8437046   0.13106881   -2.1597155    186.70059    186.63889 -0.030525963 
 3340000     13360000    9743.2255   -39170.539    272.36482  0.043576845   -29427.313    4712.2357   -3.1697245    1.3561654   0.21489828   -3.4543479    186.62059     186.5219 -0.019775954 
 3360000     13440000    9819.2673   -39159.107    274.49052  -0.11701569    -29339.84    4624.9008    2.1796196  -0.94494604  -0.14750833     2.380215    186.54059     186.6086 -0.0022236568 
 3380000     13520000    9844.3334   -39193.844    275.19122   0.14027131   -29349.511    4634.1462   -1.6765973   0.72766063   0.11129464   -1.8310803    186.46059    186.40828 0.0094564624 
 3400000     13600000    9814.2083   -39094.901     274.3491 -0.017409082   -29280.692    4569.5993   -3.1712834    1.3848111   0.21369896   -3.4670459    186.38059    186.28153 0.00062462321 
 3420000     13680000     9853.422   -39069.062    275.44529  0.018179008    -29215.64    4504.1398   -2.8836409    1.2672866   0.19567079   -3.1558972    186.30059    186.21042 -0.0057782768 
 3440000     13760000    9750.5243   -39212.475    272.56886  -0.15050985   -29461.951    4748.4006   -1.5649029   0.69383048   0.10609447   -1.7151029    186.22059    186.17159 -0.0039101298 
 3460000     13840000    9854.3298   -39002.553    275.47067 0.0048660773   -29148.223    4437.6334   -1.1178886   0.49811042  0.078173059    -1.226336    186.14059    186.10555 -0.0021377756 
 3480000     13920000     9727.746   -39169.575    271.93211  0.061072692   -29441.829      4727.67   -4.8118771    2.1585383   0.34032935   -5.2848153    186.06059     185.9096  -0.01903436 
 3500000     14000000    9773.8796   -39084.453    273.22174 -0.024100383   -29310.574    4597.2445   -1.6296989   0.73499163   0.11492332   -1.7914627    185.98059    185.92941 -0.035358774 
 3520000     14080000    9857.0528   -39245.505    275.54678  0.089571354   -29388.452    4673.2798    -1.880432   0.85718417   0.13305265   -2.0708675    185.90059    185.84142 -0.014020982 
 3540000     14160000    9809.7818    -39164.61    274.22536   0.14500003   -29354.828    4639.0394    3.7363671   -1.7114409  -0.26665588    4.1183218    185.82059    185.93826 -0.022469765 
 3560000     14240000    9758.7798   -39112.242    272.79963  0.043666269   -29353.462    4640.0443    2.2003657   -1.0116607  -0.15947137    2.4270347    185.74059    185.80994 -0.0051762698 
 3580000     14320000    9772.2352   -39003.281    273.17577   0.10896935   -29231.046    4516.2994    7.6038174    -3.525694  -0.55439081    8.3997563    185.66059    185.90058 0.0036428233 
 3600000     14400000    9685.2644   -39061.657    270.74456  -0.15843856   -29376.392    4666.3635    2.2067324    -1.029853  -0.16209392    2.4406023    185.58059    185.65032 -0.00096034182 
 3620000     14480000    9983.3773   -38893.553    279.07809  0.056363415   -28910.176    4197.0417    5.3775729   -2.5184057  -0.39701175    5.9513256    185.50059    185.67063 -0.020252618 
 3640000     14560000     9887.345    -39034.03    276.39358  -0.04802766   -29146.685    4434.6649    3.7840542   -1.7849436  -0.27722501    4.1930828    185.42059    185.54039  -0.01530905 
 3660000     14640000    9792.3794   -38891.083    273.73889  -0.14701522   -29098.704    4388.1241   -6.1111149    2.9100198   0.46781756   -6.7847471    185.34059    185.14674 -0.010421577 
 3680000     14720000    9774.7981   -39042.283    273.24741 -0.076674737   -29267.485    4556.5689    1.5066279  -0.72131117  -0.11443857    1.6743099    185.26059    185.30843 -0.025174409 
 3700000     14800000     9811.409    -39209.04    274.27084 -0.043880448   -29397.631    4683.2194   -5.5807487    2.6844441   0.41982428   -6.2070322    185.18059    185.00325 0.0044068226 
 3720000     14880000    9839.1208   -39238.147    275.04551 -0.086753721   -29399.026    4684.5395     1.064653  -0.51613491 -0.081600085    1.1859763    185.10059    185.13448 -0.028812307 
 3740000     14960000    9843.3751   -39026.888    275.16443  0.053297301   -29183.513    4469.3515   -3.8490228    1.8764566   0.29186553   -4.2919986    185.02059    184.89796 -0.039717273 
 3760000     15040000    9919.8146   -39095.759    277.30124 -0.006658751   -29175.944     4463.073    3.3523043   -1.6484103  -0.25976114    3.7446864    184.94059    185.04758 -0.0027026256 
 3780000     15120000    9860.2323    -39015.45    275.63566  0.099997496   -29155.218    4441.7594     3.761257   -1.8548313  -0.29766635    4.2042905    184.86059    184.98071 -0.023757175 
 3800000     15200000    9949.9624   -39105.098      278.144  0.030932103   -29155.135    4441.5007    2.6318471   -1.3092813   -0.2113594    2.9471188    184.78059     184.8648 -0.034790036 
 3820000     15280000    9804.5949   -39063.999    274.08036  0.092238352   -29259.404     4546.226  -0.28213268   0.14106093   0.02262533   -0.3162419    184.70059    184.69156 -0.021921727 
 3840000     15360000    9766.6902   -39024.544    273.02076  0.066451662   -29257.854    4543.0014    4.5060141    -2.270554   -0.3605819    5.0586162    184.62059    184.76512 -0.029704145 
 3860000     15440000    9866.9028   -38897.956    275.82213  0.091892921   -29031.053    4319.8855    3.2279177   -1.6311578  -0.26157036    3.6260926    184.54059    184.64419 -0.014290418 
 3880000     15520000    9870.8927   -38967.061    275.93367 -0.078303096   -29096.168    4385.0798    1.4231758  -0.72432861  -0.11798075    1.6012497    184.46059    184.50634  0.019857284 
 3900000     15600000    9917.3483   -38857.158     277.2323 0.0083086821    -28939.81    4228.1424  -0.72249156   0.37018756  0.060884059   -0.8140883    184.38059    184.35733 0.0033685817 
 3920000     15680000    9897.9096   -38999.781    276.68891  0.029491783   -29101.871    4389.3395    3.1883321   -1.6452103  -0.26809414    3.5977845    184.30059    184.40339   0.01528278 
 3940000     15760000     9815.945   -39045.911    274.39765  0.022360977   -29229.966    4517.2295   0.97514595  -0.50494041 -0.083061769    1.1012601    184.22059    184.25206 0.0072509529 
 3960000     15840000    9842.3452    -39040.46    275.13564   0.12259186   -29198.115    4484.3518   -1.1101311   0.57878451  0.094789091   -1.2555348    184.14059    184.10472 -0.016088846 
 3980000     15920000    9862.0781    -38965.38    275.68726 -0.064784775   -29103.302     4391.283   -2.6345642    1.3839495   0.22812604   -2.9846752    184.06059    183.97532 -0.013398778 
 4000000     16000000    9776.7528   -38917.149    273.30205   0.10815099   -29140.396    4427.2227   -5.5543744    2.9379512   0.48478244   -6.3021938    183.98059    183.80053 -0.030193296 
 4020000     16080000    9957.4145   -38954.351    278.35232  -0.10226891   -28996.936    4287.0986   -1.8293684   0.97174412   0.16180182   -2.0777524    183.90059    183.84123 -0.00056970653 
 4040000     16160000    9913.6583   -39004.183    277.12915  0.073141953   -29090.524     4377.474    3.1315359   -1.6708957  -0.27799265    3.5602934    183.82059    183.92231 0.0079052861 
 4060000     16240000    9848.2889   -38816.295     275.3018 -0.018136146   -28968.006    4258.6616  -0.22293409   0.11964375  0.019904156  -0.25379207    183.74059    183.73334 -0.006202641 
 4080000     16320000    9847.2456   -38874.249    275.27263   0.11592617   -29027.003    4312.2568   -1.0549715   0.57143399  0.095126972   -1.2035576    183.66059     183.6262 -0.012912969 
 4100000     16400000    9826.7028   -39171.055    274.69837  0.019111429   -29344.352    4633.4779    4.5730314   -2.4857527  -0.41774209    5.2216943    183.58059    183.72978 -0.017593282 
 4120000     16480000    10036.014   -38932.506     280.5495 -0.052252978   -28896.492    4184.6241    2.9154779   -1.5916947  -0.26933609    3.3325734    183.50059    183.59581 -0.00087030255 
 4140000     16560000    9914.0459   -38887.147    277.13998   0.10493035   -28973.101    4262.1521   -1.8673415    1.0276663   0.17555788   -2.1386638    183.42059    183.35949   0.01059078 
 4160000     16640000    9777.6979   -39089.378    273.32847 -0.0015323613    -29311.68    4597.2157   -5.6752856    3.1340246   0.53934637   -6.5055262    183.34059    183.15472 -0.011286753 
 4180000     16720000    9861.6069   -38979.739    275.67409  -0.12837832   -29118.132     4407.087    0.4848494  -0.27019577 -0.046336092    0.5569845    183.26059    183.27651 -0.012925229 
 4200000     16800000     9819.059   -38921.181    274.48469 -0.0017401509   -29102.122    4389.2785    8.6045063   -4.8160178  -0.84055399    9.8963674    183.18059    183.46335 -0.001845351 
 4220000     16880000    9812.2549   -39061.165    274.29449   0.10867364    -29248.91    4534.9337   0.95946503  -0.53893922 -0.093307807    1.1044161    183.10059    183.13215 -0.020424147 
 4240000     16960000    9848.9062    -38887.16    275.31905  0.083278943   -29038.254    4325.2559   -1.9160747    1.0837537   0.19055069   -2.2095642    183.02059    182.95746 -0.029116295 
 4260000     17040000     9781.303   -39022.947    273.42925  0.078987824   -29241.644     4525.416   -3.8621589    2.2013847   0.38935894   -4.4625067    182.94059    182.81309 -0.026060851 
 4280000     17120000    9850.8262   -38915.955    275.37272 -0.045253713   -29065.129     4354.712    4.1377647   -2.3654753  -0.41367175    4.7841086    182.86059    182.99728 -0.020895613 
 4300000     17200000    9810.3418   -38930.233    274.24101  0.053941196   -29119.891    4405.2559    2.7297883   -1.5666095  -0.28043954    3.1598506    182.78059    182.87087 -0.018899122 
 4320000     17280000    9767.9534   -38926.123    273.05607 -0.022196898    -29158.17    4444.8655   -4.9119002    2.8295156     0.502904   -5.6908553    182.70059      182.538 -0.010782519 
 4340000     17360000    9816.7219   -38843.658    274.41936  -0.10977583   -29026.936    4318.7102    1.7296477   -1.0026715  -0.17899036    2.0072541    182.62059    182.67794 -0.018652013 
 4360000     17440000    9748.4829   -39039.728    272.51179 0.0047167829   -29291.245    4578.0898   -2.4026398     1.402075   0.24876258   -2.7929152    182.54059    182.46079 -0.016178674 
 4380000     17520000    9803.4102   -39049.201    274.04724 -0.011266328   -29245.791    4534.7332   -0.9264763   0.54326377  0.097710484   -1.0784439    182.46059    182.42978 -0.032377985 
 4400000     17600000    9859.8555   -38954.779    275.62513  0.082839802   -29094.923    4379.4552    2.2188995   -1.3117059  -0.23554958    2.5883529    182.38059    182.45454  0.021294117 
 4420000     17680000     9709.073   -38931.112    271.41011  -0.15376062   -29222.039    4511.7492   -2.5571905    1.5151124     0.275067   -2.9850378    182.30059     182.2153 -0.0067750715 
 4440000     17760000    9800.5717   -38982.152    273.96789 -0.042816599    -29181.58    4467.5201   -7.4910743    4.4804435    0.8136386   -8.7665601    182.22059    181.97012 -0.021110652 
 4460000     17840000    9957.9103   -39018.811    278.36618  -0.12208299   -29060.901    4349.1787    4.5820458   -2.7474196  -0.50446772    5.3663717    182.14059    182.29392 -0.019700963 
 4480000     17920000     9809.027   -39133.574    274.20426 -0.056257666   -29324.547    4613.4416   -2.4833876    1.4912117   0.27460517   -2.9096967    182.06059    181.97746 0.00018402263 
 4500000     18000000    9992.9624   -39016.799    279.34604 -0.063796436   -29023.836    4314.0455  -0.35369483   0.21430603   0.03973509  -0.41545877    181.98059    181.96872 0.0097237169 
 4520000     18080000    9801.9674   -39046.354    274.00691  0.042937237   -29244.386     4532.161  -0.86516319   0.52698288  0.099731455   -1.0179217    181.90059    181.87151 0.0070403189 
 4540000     18160000    9860.7373   -39141.363    275.64978  -0.03802165   -29280.626    4569.6489   -1.5207753   0.92865445   0.17444904   -1.7904159    181.82059    181.76944  0.021594279 
 4560000     18240000     9854.329   -39032.813    275.47064 -0.046632521   -29178.484    4467.8393  -0.56403228   0.34680859  0.066348302  -0.66544023    181.74059    181.72158 -0.0063607102 
 4580000     18320000    9803.0425    -39172.32    274.03696  0.037899307   -29369.277    4654.9756   -4.5674102    2.8203695   0.53935159   -5.3950551    181.66059    181.50645  -0.01392612 
 4600000     18400000    9889.5315   -39000.168     276.4547   0.10157979   -29110.636    4397.3733  0.057591644 -0.035805485 -0.0068763444  0.068162411    181.58059    181.58254 -0.0055745616 
 4620000     18480000    9739.8481   -39140.165    272.27041 -0.044597727   -29400.317    4686.5338   -6.7345487     4.200728    0.8049909   -7.9779867    181.50059    181.27265 -0.013444134 
 4640000     18560000    9810.9407   -39161.944    274.25775 -0.028606527   -29351.004    4637.7592   -1.9176002    1.2041737   0.23092705   -2.2760827    181.42059    181.35556 0.0095084883 
 4660000     18640000    9962.7949   -39215.663    278.50273  0.010963574   -29252.868    4538.0655   -5.3957899    3.4130631   0.65215324   -6.4178542    181.34059    181.15722  0.021084352 
 4680000     18720000     9731.688   -39081.526     272.0423 -0.012702934   -29349.838    4636.4767  -0.59287079   0.37665481   0.07275776  -0.70615742    181.26059    181.24042 0.0096442789 
 4700000     18800000    9825.1037   -39054.797    274.65367 0.0038029863   -29229.693    4516.6594  -0.29900753   0.19089468  0.036795924  -0.35665141    181.18059     181.1704  0.011286158 
 4720000     18880000    9858.4403   -38982.543    275.58557  0.048758393   -29124.102    4411.0452   -2.2018619    1.4125445   0.27606457   -2.6305302    181.10059    181.02543  0.015166256 
 4740000     18960000    9817.7749   -39122.265     274.4488  0.097847527    -29304.49    4590.4423   -3.1224302    2.0136422   0.38688102   -3.7355056    181.02059    180.91386 -0.022073945 
 4760000     19040000    9872.0915   -39088.688    275.96718  -0.11479678   -29216.597    4505.3368    1.9499522   -1.2634969  -0.24481897    2.3363807    180.94059    181.00735 -0.0097863794 
 4780000     19120000    9714.1642   -38964.084    271.55243   0.06120964    -29249.92    4538.1344    4.4704704   -2.9078788  -0.57158083    5.3635408    180.86059    181.01384 -0.013151995 
 4800000     19200000     9920.446   -38977.098    277.31889 -0.0012483319   -29056.652    4343.0603   -2.2024844    1.4395858   0.28236368   -2.6463322    180.78059    180.70498 0.0057441391 
 4820000     19280000    9869.6762   -39069.048    275.89966 -0.022662194   -29199.372    4485.5223    -3.607817    2.3596793   0.46464597   -4.3359343    180.70059    180.57671 -0.0055995749 
 4840000     19360000    9833.9452   -39040.185    274.90083  -0.07137395    -29206.24    4494.7896   -2.7494298    1.8123566   0.35650859    -3.312265    180.62059    180.52596 -0.031163361 
 4860000     19440000    9905.1595   -39181.284    276.89157  0.094039753   -29276.125    4559.9819   -5.3413874    3.5412772    0.7040816   -6.4472315    180.54059    180.35639 -0.003697729 
 4880000     19520000    9872.6075   -38974.212     275.9816 -0.087205607   -29101.605    4387.6768   -5.4239934    3.6164698   0.72244263       -6.559    180.46059    180.27319 0.0055614115 
 4900000     19600000    9720.9879   -39150.823    271.74319 -0.049115033   -29429.835    4715.7447   -3.9027887    2.6090872   0.52530591     -4.72388    180.38059    180.24562 -0.0066947861 
 4920000     19680000    9811.6981   -39083.079    274.27892 0.00036465372   -29271.381    4558.2038   -1.5198125    1.0234012   0.20396012    -1.843578    180.30059    180.24792 -0.0090181214 
 4940000     19760000    9875.1246   -39260.478    276.05197 0.00030899646   -29385.353    4671.7934  -0.15999807   0.10819277  0.021692833  -0.19435955    180.22059    180.21504 -0.0063568834 
 4960000     19840000    9798.1611   -39082.678    273.90051 -0.046056366   -29284.517    4570.2249   -4.7397653      3.21436   0.63836448   -5.7623775    180.14059    179.97595 -0.017820982 
 4980000     19920000    9834.7352   -39301.554    274.92291   0.10415155   -29466.819    4750.9513   -4.4970287     3.070631    0.6106674   -5.4795033    180.06059    179.90403 -0.017876846 
 5000000     20000000    9798.1339   -39164.727    273.89975 0.0077213804   -29366.593    4652.5101    2.9271792   -2.0067479  -0.40282419    3.5717898    179.98059    180.08264 -0.0032153366 
 5020000     20080000    9779.9236   -39216.584    273.39069  0.030081969    -29436.66    4722.8716    1.0312153  -0.71173196  -0.14308401    1.2611267    179.90059    179.93662 0.0092517352 
 5040000     20160000    9852.0988   -39129.842     275.4083  0.022440861   -29277.743    4562.1777   0.99656215  -0.69045127  -0.13914245    1.2203359    179.82059    179.85546 -0.0032171261 
 5060000     20240000    9771.1371   -39051.801    273.14507   0.13509957   -29280.664    4566.1228    1.1636702  -0.80979872    -0.163174    1.4270697    179.74059    179.78137  0.006389978 
 5080000     20320000    9860.5823   -39128.372    275.64545  0.038941018    -29267.79    4553.1656    7.5733937   -5.2924847   -1.0823799    9.3025928    179.66059    179.92638  0.012241194 
 5100000     20400000    9931.9543   -39125.644     277.6406  0.065102783    -29193.69    4482.7675   0.22692577  -0.15948679 -0.032744819   0.27929118    179.58059    179.58857  0.030568871 
 5120000     20480000    9893.1139   -39100.698    276.55484 -0.010295764   -29207.584    4495.0419  -0.62131758    0.4390225  0.089347333  -0.76600212    179.50059    179.47871  0.022338316 
 5140000     20560000    9868.6991   -39226.711    275.87235  0.086264267   -29358.012    4643.4855   -4.1754857    2.9639569   0.60818785   -5.1565118    179.42059    179.27326 -0.005412225 
 5160000     20640000      9878.13   -39234.337    276.13598 -0.0099411523   -29356.207    4640.5686   -5.4486351    3.8845423   0.79301439   -6.7384097    179.34059    179.14807 -0.012854812 
 5180000     20720000    9769.7873    -39213.25    273.10734 -0.034385876   -29443.463    4729.3346    3.5744551   -2.5672264  -0.52662007    4.4322352    179.26059    179.38723 -0.032335764 
 5200000     20800000    9808.6045   -39178.625    274.19245  0.097785891   -29370.021    4657.4976   0.89003607  -0.64022262   -0.1328558    1.1044002    179.18059    179.21215  -0.02679958 
 5220000     20880000    9950.1932   -39105.772    278.15045 -0.021289219   -29155.579    4442.8453  -0.97601796    0.7074865   0.14612178   -1.2142898    179.10059     179.0659 0.0010547321 
 5240000     20960000    9867.6766   -39226.058    275.84376   0.10730524   -29358.382    4643.3282   -3.4670768    2.5263912   0.52222929   -4.3215735    179.02059    178.89712 -0.008064966 
 5260000     21040000     9898.765   -39099.726    276.71282   0.02386051   -29200.961    4485.9778   -9.6174125    7.0457733    1.4589906   -12.011086    178.94059    178.59742 -0.019481362 
 5280000     21120000    9829.0798   -39179.651    274.76482 -0.034527049   -29350.572    4635.3506    -8.606126     6.340543    1.3067276   -10.769189    178.86059     178.5529  -0.01081956 
 5300000     21200000    9801.9392   -39264.401    274.00612  0.016885624   -29462.462     4748.671   -2.6625135    1.9651701   0.41313138   -3.3348987    178.78059    178.68531 -0.0040544679 
 5320000     21280000    9813.9477   -39046.133    274.34181  -0.11640369   -29232.185    4519.4738    1.5322086    -1.139596  -0.23786059    1.9242972    178.70059    178.75557 0.0010900844 
 5340000     21360000    9813.2187   -39183.907    274.32143 -0.058812622   -29370.689    4658.7982  -0.55632786   0.41500782  0.086432904  -0.69943036    178.62059    178.60061 0.0095236264 
 5360000     21440000    9840.6186   -39190.724    275.08738   0.02663325   -29350.105    4635.5871   -1.2062577   0.90395904   0.18858461   -1.5191326    178.54059    178.49719 0.0034973563 
 5380000     21520000    9816.4281   -39188.716    274.41115 -0.0051564252   -29372.288    4657.4193   0.17420209  -0.13144874 -0.027527427   0.21996113    178.46059    178.46688 -0.0044756247 
 5400000     21600000    9832.3208   -39215.859    274.85542  0.063168123   -29383.538    4668.0465    -2.237288     1.692808   0.35762468   -2.8282418    178.38059    178.29978 -0.0088723947 
 5420000     21680000    9840.0464   -38968.076    275.07138  0.021584947   -29128.029    4414.8802    2.0546794   -1.5598497  -0.32939885    2.6006426    178.30059     178.3749 -0.013780157 
 5440000     21760000    9864.1141   -39143.164    275.74418 -0.027414521    -29279.05    4565.8423    4.7582033   -3.6366087  -0.76372931    6.0372762    178.22059    178.39309  -0.01652317 
 5460000     21840000    9824.4039   -39105.344    274.63411   0.01951141    -29280.94    4564.2615     9.750581   -7.4968195   -1.5840317     12.40102    178.14059    178.49491 -0.028704466 
 5480000     21920000    9793.6642   -39174.771     273.7748   0.01563377   -29381.107    4667.6746    4.6156655   -3.5670402  -0.75389862    5.8818795    178.06059    178.22865 -0.015777768 
 5500000     22000000     9884.675   -39027.525    276.31894  0.023265855    -29142.85    4428.2415    1.7221281   -1.3365238  -0.28226309    2.1981113    177.98059    178.04339 -0.00096903903 
 5520000     22080000    9753.3786   -39252.249    272.64865  0.069757933    -29498.87    4782.2628  -0.18538175   0.14439187  0.030913908  -0.23700438    177.90059    177.89382 -0.0035869677 
 5540000     22160000    9803.6255   -39169.244    274.05326 -0.059786643   -29365.618    4651.1535    1.3075148   -1.0233835  -0.21742348    1.6745691    177.82059    177.86844 0.0057864016 
 5560000     22240000    9864.0605   -39099.521    275.74268 -0.029943725    -29235.46     4522.792   -1.5748361    1.2379662   0.26367972   -2.0204445    177.74059    177.68286 -0.016787823 
 5580000     22320000    9740.3438   -39170.142    272.28427  0.055876498   -29429.798    4716.7076     4.497673   -3.5644717  -0.75371997    5.7881443    177.66059    177.82597 0.0031547516 
 5600000     22400000    9927.6722   -39053.461     277.5209 0.0030936436   -29125.789    4412.7643 -0.065036444  0.051667958  0.010984353 -0.083785278    177.58059     177.5782 -9.6714822e-05 
 5620000     22480000    9689.2057   -39178.465    270.85474  -0.17493869    -29489.26    4778.1127    3.7321131   -2.9879625  -0.64095572    4.8236306    177.50059    177.63841 0.00053137281 
 5640000     22560000    9914.8447   -39182.795    277.16231   0.11482618    -29267.95    4551.6964   -1.0898111   0.87352337   0.18654566   -1.4090886    177.42059    177.38033  0.016038992 
 5660000     22640000    9745.8852   -39244.109    272.43917 -0.033209274   -29498.224    4784.2822    -2.895507    2.3338132   0.49717017   -3.7520426    177.34059    177.23339 -0.0035271483 
 5680000     22720000    9746.6272   -38963.266    272.45992 -0.033726757   -29216.638    4502.7748   -4.5572661     3.684425   0.79034474   -5.9134006    177.26059    177.09164 0.0030509111 
 5700000     22800000    9800.5627    -39115.34    273.96764   0.05872932   -29314.777      4601.13   -1.9121541    1.5575808   0.33931021   -2.4894824    177.18059    177.10946  0.022619646 
 5720000     22880000    9801.1791   -38992.901    273.98487 -0.039015821   -29191.722    4478.0077  -0.53507637   0.43795003  0.093625295   -0.6977626    177.10059    177.08066 0.00043871331 
 5740000     22960000    9892.1702   -39068.417    276.52847  0.014917972   -29176.246    4463.2313 -0.084665944   0.06966832  0.015153484  -0.11068706    177.02059    177.01743 0.0090872039 
 5760000     23040000    9749.3692   -38975.325    272.53657  0.063826744   -29225.955    4512.3469   -1.7361666    1.4352853   0.31548034    -2.274609    176.94059     176.8756  0.012356079 
 5780000     23120000    9840.2349   -38991.274    275.07665  0.047237636   -29151.039    4436.6258   -1.9745042    1.6415165   0.35964611   -2.5927955    176.86059    176.78651 -0.0017980908 
 5800000     23200000    9906.0573   -39123.047    276.91667  0.051334312    -29216.99    4503.2515   0.58352573   -0.4874272  -0.10648085   0.76774066    176.78059    176.80253 -0.017234513 
 5820000     23280000     9911.293   -39119.768    277.06303  0.029126401   -29208.475    4493.7822     2.012974   -1.6900494   -0.3681873    2.6540334    176.70059    176.77642 -0.012766246 
 5840000     23360000      9810.18   -39193.213    274.23649 -0.024731686   -29383.033    4666.4928    3.3216585   -2.8047213  -0.61016807    4.3900093    176.62059    176.74602  0.002896368 
 5860000     23440000    9950.0669   -39144.025    278.14693  0.044894081   -29193.958    4478.1635    7.3318567    -6.209906   -1.3716903    9.7056988    176.54059     176.8179 0.0043668751 
 5880000     23520000    9919.1777   -39034.536    277.28344   0.14625382   -29115.359    4400.1283  -0.27041063   0.22983572   0.05069892  -0.35849232    176.46059    176.45035 -0.0084125778 
 5900000     23600000    9839.1709   -38978.284    275.04691  0.004498712   -29139.113    4426.7525   -1.5154021    1.2948785   0.28382631    -2.013383    176.38059    176.32307 0.0033869137 
 5920000     23680000    9839.5893    -39059.22     275.0586  0.022093175   -29219.631    4504.8405    -1.146059   0.98701446   0.21457148   -1.5276419    176.30059    176.25694 0.0019236207 
 5940000     23760000    9763.8199   -39148.592    272.94053  0.046653846   -29384.772    4669.4802   -1.9658381    1.7000219   0.37330232    -2.625633    176.22059    176.14557 0.0067267954 
 5960000     23840000    9858.6107   -39099.509    275.59033 -0.023462894   -29240.898    4526.9347   -6.6063741    5.7444735     1.251796   -8.8436501    176.14059    175.88792 -0.0070468349 
 5980000     23920000    9860.4993    -39121.29    275.64313 -0.048846315    -29260.79    4544.9525   -1.9455911    1.7011726    0.3752179   -2.6115324    176.06059    175.98598 -0.0082067341 
 6000000     24000000    9885.8723   -39070.287    276.35241  -0.11830365   -29184.414    4469.8991   -2.8832966    2.5300624   0.55934146   -3.8765291    175.98059    175.86983  0.010829355 
 6020000     24080000    9845.1972    -39201.37    275.21537 -0.023081133   -29356.173    4642.0578    -1.294673    1.1404158   0.25254795   -1.7437049    175.90059    175.85077 0.00087438385 
 6040000     24160000    9857.1199   -39063.597    275.54866 0.0084323817   -29206.477    4491.8909   -3.4252934    3.0318737   0.67625737   -4.6240909    175.82059    175.68847 -0.00036928473 
 6060000     24240000    9869.3719   -39214.436    275.89115  0.024892369   -29345.064    4629.9084   -4.9753415    4.4228251   0.98907395   -6.7300573    175.74059     175.5483  -0.01929961 
 6080000     24320000    9964.9082    -39190.94     278.5618  -0.15364713   -29226.032    4514.1946    1.9326174   -1.7275931  -0.38628552    2.6208404    175.66059    175.73547 -0.0066944909 
 6100000     24400000    9874.3162   -39095.224    276.02937 -0.093151776   -29220.907    4508.9261   -0.3537353   0.31738138  0.070763065  -0.48048623    175.58059    175.56686 -0.011094695 
 6120000     24480000    9946.2995   -39073.815    278.04161 -0.013975663   -29127.516    4415.3453   -3.8895415    3.5121815    0.7948798   -5.3005458    175.50059    175.34915  -0.02977185 
 6140000     24560000    9985.6676   -39079.391    279.14212 -0.025645565   -29093.724    4379.6662   -4.2514716    3.8551498   0.86282414   -5.8035899    175.42059    175.25477 0.0043112399 
 6160000     24640000    9744.6696   -39176.044    272.40519  0.055085946   -29431.374    4715.0813   -6.9697544    6.3552329    1.4279417   -9.5396792    175.34059    175.06803  0.014810502 
 6180000     24720000    9795.4515    -39099.46    273.82476  -0.11999203   -29304.009    4589.8746   -9.5897691     8.803795    1.9930043   -13.169759    175.26059    174.88431  0.012393159 
 6200000     24800000    9933.6839   -39175.247    277.68895  0.082667192   -29241.563    4526.5101   -1.0997114     1.012714   0.22665246   -1.5120602    175.18059    175.13739  0.008591551 
 6220000     24880000    9977.9406   -39152.655    278.92611  0.089990336   -29174.715    4458.8635   -4.0545065    3.7549148   0.85306773   -5.5916127    175.10059    174.94083 -0.0029594748 
 6240000     24960000    9689.1506   -39201.136     270.8532 -0.012992482   -29511.985    4798.4141   -2.6051278    2.4244949   0.54537606   -3.6003196    175.02059    174.91773  0.010346093 
 6260000     25040000    9720.6535   -39347.305    271.73384  0.068388015   -29626.651    4910.3271  -0.20151666   0.18844194  0.042566149  -0.27916162    174.94059    174.93262 -0.0021155401 
 6280000     25120000    9868.0948   -39242.466    275.85545 -0.049688648   -29374.371    4658.6231   -6.9942849    6.5783534    1.4894076   -9.7166398    174.86059    174.58297 0.0026272218 
 6300000     25200000    9873.5913    -39178.41     276.0091 -0.054453952   -29304.819     4592.181   -2.3955577     2.259659   0.50746051   -3.3320071    174.78059    174.68539  -0.01371763 
 6320000     25280000    9941.6408   -39222.916    277.91138   -0.1059782   -29281.275    4568.0923   -2.7003856    2.5660362   0.57496863   -3.7692456    174.70059     174.5929 -0.013440898 
 6340000     25360000    9950.4151   -39250.234    278.15666 -0.034618869   -29299.819    4586.3431   0.35422261   -0.3383353 -0.075729168   0.49566051    174.62059    174.63475 0.0038131445 
 6360000     25440000    9692.1835   -39016.514    270.93798 -0.068486813    -29324.33    4613.4918   0.90169798   -0.8663351  -0.19507961    1.2655638    174.54059    174.57675  -0.01579086 
 6380000     25520000    10009.649   -39023.161     279.8125 0.0041610135   -29013.512    4301.6898 -0.041813835   0.04037063 0.0090137433 -0.058816938    174.46059    174.45891 -0.012944838 
 6400000     25600000      9887.71   -39177.503    276.40378  0.023303981   -29289.793    4573.4198   -1.2852657     1.243834    0.2790571    -1.810222    174.38059    174.32887 -0.0036065676 
 6420000     25680000    9759.2696   -39190.759    272.81332  0.035411373    -29431.49    4716.5095    4.3282778   -4.2270747  -0.95273253    6.1245284    174.30059    174.47558 -0.014984008 
 6440000     25760000    9893.0163   -39289.078    276.55212 -0.059390127   -29396.061    4682.2195   0.22405455  -0.21967309  -0.04935676   0.31763627    174.22059    174.22967 -0.0073370242 
 6460000     25840000     9859.334       -39234    275.61055 0.0043690194   -29374.666    4659.0151    4.7018575   -4.6316088    -1.044709    6.6821165    174.14059    174.33151  0.019409199 
 6480000     25920000     9780.209   -39248.548    273.39867 -0.0097010825   -29468.339    4754.3715  -0.04373892  0.043359916 0.0097893302 -0.062361899    174.06059    174.05881  0.036002729 
 6500000     26000000    9787.3003   -39132.413     273.5969  0.029035609   -29345.112    4632.4393  -0.96232578   0.95677348   0.21569604   -1.3740492    173.98059    173.94133 -0.0017917019 
 6520000     26080000    9879.5143   -39062.152    276.17468 -0.048688261   -29182.638    4469.0928   -2.4440333    2.4391948    0.5530782   -3.4969795    173.90059    173.80068 -0.0094194384 
 6540000     26160000    9854.8507   -39215.145    275.48523   0.04181736   -29360.294    4645.3824   -2.8227774    2.8383796   0.63986356   -4.0538742    173.82059    173.70477 0.0046837507 
 6560000     26240000    9893.5354   -39131.666    276.56663 -0.0081108723    -29238.13    4523.9277   -4.5130637    4.5630318    1.0272464   -6.4995568    173.74059    173.55489 -0.017063228 
 6580000     26320000    9826.6085   -39072.134    274.69573 -0.030465138   -29245.525    4531.9903            0            0            0            0    173.66059    173.65976 -0.020716159 
 6600000     26400000    9715.6809   -39298.079    271.59483 -0.0077961326   -29582.398    4869.9419   -2.2796909    2.3243515   0.52288861   -3.2974253    173.58059    173.48638 -0.013356348 
 6620000     26480000      9851.77   -39093.869    275.39911   0.10524225   -29242.099    4528.5819   0.98385937   -1.0080524  -0.22841755    1.4269981    173.50059    173.54136 -0.0076187999 
 6640000     26560000    9893.4481   -38914.073    276.56419 -0.054341494   -29020.625    4307.1532     4.290808   -4.4228288    -1.002118    6.2431313    173.42059    173.59897 -0.028410342 
 6660000     26640000    9810.1993   -38963.891    274.23703  0.064096465   -29153.692    4441.0419   0.77483496  -0.80190842  -0.18027403    1.1295685    173.34059    173.37287 -0.012038025 
 6680000     26720000    9824.9848   -39018.722    274.65035 -0.0065618613   -29193.737    4482.2133    1.3073848   -1.3599364   -0.3062552    1.9111447    173.26059     173.3152 -0.014393497 
 6700000     26800000    9745.8053   -39301.293    272.43694  -0.13103932   -29555.487    4840.8305    3.6379182   -3.8076828   -0.8641467    5.3366325    173.18059    173.33307 -0.004089463 
 6720000     26880000    9743.2362    -39074.34    272.36512  -0.02160869   -29331.103    4618.5596   0.74198078  -0.77847575     -0.17692    1.0898902    173.10059    173.13173 -0.004241419 
 6740000     26960000    9888.2416   -39214.448    276.41864   0.04838895   -29326.206    4611.5291   0.13147432  -0.13811815 -0.031338033   0.19324646    173.02059    173.02611  0.018358637 
 6760000     27040000     9760.967   -39178.789    272.86077 -0.045323928   -29417.822     4705.398   0.21488637  -0.22733495 -0.051651617   0.31705713    172.94059    172.94965 -0.018495769 
 6780000     27120000    9797.2043   -39049.873    273.87376   0.06575896   -29252.669    4539.9545    -2.313414    2.4597484   0.55371424   -3.4218191    172.86059    172.76283 0.0068883812 
 6800000     27200000    9882.2775   -39050.537    276.25192   -0.1265033    -29168.26    4457.7263  0.036532662 -0.039076548 -0.0088944537  0.054228437    172.78059    172.78214 -0.025738489 
 6820000     27280000    9841.2681   -38995.611    275.10553  0.044177136   -29154.343    4442.1923    3.6591111   -3.9235737  -0.88285436    5.4371828    172.70059    172.85594 -0.022489968 
 6840000     27360000    9941.9768    -39003.28    277.92077   -0.1280212   -29061.303    4350.3451   -1.5722168    1.6995098   0.38343164   -2.3467464    172.62059    172.55354 -0.013095946 
 6860000     27440000    9776.7442   -38977.077    273.30181  0.084956669   -29200.333    4489.5711  -0.78949251   0.85570452   0.19406615   -1.1803348    172.54059    172.50687 0.0042802602 
 6880000     27520000    9871.5955    -39068.29    275.95331 -0.0034323716   -29196.694    4486.0808   -2.4633832    2.6830116   0.60624318   -3.6924705    172.46059    172.35509  0.011878724 
 6900000     27600000    9894.4116   -39050.518    276.59112  0.057814312   -29156.107    4443.6982   -2.4574513    2.6850108   0.61317386   -3.6911153    172.38059    172.27513 -0.022176272 
 6920000     27680000    9833.8006   -39150.324    274.89678 0.0032664829   -29316.524    4603.2644   -3.1338551     3.436227    0.7829968     -4.71612    172.30059    172.16585 0.0014866274 
 6940000     27760000     9688.189   -39145.775    270.82632  0.013128871   -29457.586    4744.5046   -5.1819484    5.7190722      1.28848   -7.8243566    172.22059    171.99704 0.0043796267 
 6960000     27840000    9797.9661   -39071.615    273.89506  0.041549717   -29273.649    4559.6761    -4.990667    5.5030474    1.2500315   -7.5334498    172.14059    171.92535 -0.0016501589 
 6980000     27920000    9884.6548   -38944.314    276.31838  -0.11131979   -29059.659    4348.1093   -1.6329333    1.8128665   0.41165462   -2.4743516    172.06059     171.9899  0.015490287 
 7000000     28000000    9730.5585     -39203.3    272.01073  0.096249011   -29472.742    4756.3448   0.60039401  -0.67170201  -0.15036643   0.91338197    171.98059    172.00669 -0.013999382 
 7020000     28080000    9708.6054   -39217.838    271.39704  0.060244438   -29509.233    4795.1953    1.9523044   -2.1898353  -0.49513187    2.9752355    171.90059     171.9856 -0.012387206 
 7040000     28160000    9819.3146   -39183.277    274.49184  0.035295509   -29363.962    4649.5335   -1.2786198    1.4426377    0.3279635    -1.955411    171.82059    171.76472  0.010478741 
 7060000     28240000    9819.7585   -39348.537    274.50425  0.052108914   -29528.778    4814.2847   0.70921848  -0.80381068  -0.18037995    1.0870324    171.74059    171.77165 0.0073289641 
 7080000     28320000    9799.4603   -39332.523    273.93683   0.05294358   -29533.062    4816.4992  -0.78892275   0.89622643   0.20280797   -1.2110954    171.66059    171.62599 0.0011401693 
 7100000     28400000    9816.9109   -39356.321    274.42464  0.068960814    -29539.41     4825.165            0            0            0            0    171.58059    171.58147  0.012644658 
 7120000     28480000    9805.6087   -39237.172     274.1087 -0.066576398   -29431.563    4719.2309   -0.4878625   0.56083306   0.12588635  -0.75391705    171.50059    171.47905  0.014626289 
 7140000     28560000    9795.2316   -39266.536    273.81862 -0.083186989   -29471.305     4758.125  -0.79690227   0.91737502   0.20721945   -1.2327084    171.42059    171.38537 0.0017604088 
 7160000     28640000     9801.321   -39102.337    273.98884  0.084687867   -29301.016    4585.9223   -1.0689488    1.2357868   0.27712184   -1.6572921    171.34059    171.29324  0.020521331 
 7180000     28720000     9740.782   -39132.805    272.29652  0.029915092   -29392.023    4679.5694   0.27092612  -0.31490402 -0.070297357   0.42131606    171.26059    171.27263 0.0050384874 
 7200000     28800000    9844.2709   -39147.591    275.18947 0.0018780878    -29303.32    4590.1268    4.3095226   -5.0439651   -1.1319398    6.7301454    171.18059    171.37288 0.0069283956 
 7220000     28880000    9847.5991   -39272.799    275.28251 -0.015005557     -29425.2    4709.8818   0.96767672   -1.1381778  -0.25353028    1.5152968    171.10059    171.14389 0.0038061327 
 7240000     28960000     9717.673   -39226.818    271.65052 0.0056685329   -29509.145    4793.6712   0.88141489   -1.0390602  -0.23336155    1.3823877    171.02059    171.06009 -0.012643928 
 7260000     29040000    9799.1871   -39103.465    273.92919  0.036929269   -29304.278    4591.1117   -1.0258535     1.213131   0.27168729   -1.6117929    170.94059    170.89454 -0.010593201 
 7280000     29120000    9689.3569   -39221.139    270.85896 -0.021298712   -29531.782    4819.3759    2.3319739   -2.7688669  -0.61912688    3.6726073    170.86059    170.96552 -0.0035690253 
 7300000     29200000    9857.5044   -39153.365    275.55941 -0.059559957   -29295.861    4581.9363   0.12383707  -0.14756726 -0.032654387   0.19539198    170.78059    170.78617 0.0026759271 
 7320000     29280000    9738.5207    -39155.63     272.2333  0.007866319   -29417.109    4703.3555      3.60978   -4.3393224  -0.96536413    5.7264438    170.70059     170.8642 -0.0025517248 
 7340000     29360000    9809.3947   -39166.053    274.21453  0.032541994   -29356.659    4642.5638   0.31116543  -0.37446461 -0.083101852   0.49391658    170.62059     170.6347 0.0080939834 
 7360000     29440000    9828.3965   -39148.809    274.74572  0.027467134   -29320.412    4604.9252    1.1844892    -1.432154   -0.3155962    1.8851209    170.54059    170.59445 -0.026556926 
 7380000     29520000    10018.003   -39186.203    280.04604 -0.048884385     -29168.2    4455.9422   -3.4284098    4.1575687   0.91983218   -5.4667597    170.46059     170.3044  0.017816263 
 7400000     29600000    9898.3233   -39151.447    276.70047  0.049712134   -29253.124    4539.2382   0.18794537  -0.22894495   -0.0507528   0.30052471    170.38059    170.38918 0.0046571891 
 7420000     29680000    9833.6758   -39082.278     274.8933  0.043562096   -29248.603    4536.1905   0.40916545  -0.50173399  -0.11087983   0.65684679    170.30059    170.31936 -0.025394275 
 7440000     29760000     9863.543   -39059.319    275.72821 -0.023321152   -29195.776    4483.1722    3.1251529   -3.8486063  -0.84480832    5.0291204    170.22059    170.36428 -0.029845814 
 7460000     29840000    9823.8993   -39036.067       274.62  -0.06388183   -29212.168    4499.4479   -1.6468794    2.0331201   0.44632854   -2.6542416    170.14059    170.06476 -0.015716297 
 7480000     29920000    9919.7399   -39023.005    277.29916 -0.073383291   -29103.265    4393.3736   -3.1933627    3.9521212   0.86524001   -5.1541699    170.06059    169.91333 -0.023582469 
 7500000     30000000    9764.3793   -39136.479    272.95616 -0.013965451     -29372.1    4660.4076  -0.11850653   0.14738202  0.032494665  -0.19188841    169.98059    169.97511 -0.0084196433 
 7520000     30080000    9776.5898   -39198.101     273.2975  0.030233999   -29421.511    4707.6885    2.3751677   -2.9674294  -0.65117588    3.8563051    169.90059    170.01077  0.019059203 
 7540000     30160000    9766.1402   -39095.533    273.00539  0.015745526   -29329.392    4617.8099  -0.14087499   0.17718226  0.038747155  -0.22965334    169.82059    169.81403 0.00047708784 
 7560000     30240000    9779.6822   -39231.957    273.38395   0.01403781   -29452.275    4737.4688  -0.21571052   0.27217206  0.059540397  -0.35235453    169.74059    169.73052   0.02991098 
 7580000     30320000    9869.7927   -39429.814    275.90292  0.033710215   -29560.022    4845.8141   -1.4589044     1.845078   0.40066689    -2.386053    169.66059    169.59242   0.01695324 
 7600000     30400000    9878.6261   -39426.389    276.14985 -0.042427344   -29547.763    4832.2028   -3.8280851    4.8706676    1.0531478    -6.283849    169.58059    169.40105 -0.0057124399 
 7620000     30480000    9829.3111   -39451.583    274.77129 -0.026428997   -29622.272    4907.0957  -0.22877363   0.29256424   0.06318118  -0.37672678    169.50059    169.48983  0.011327952 
 7640000     30560000    9831.5491   -39258.667    274.83385 -0.080151682   -29427.118    4714.8071  -0.52203091   0.66851467     0.143758  -0.86028745    169.42059    169.39601 -0.038328247 
 7660000     30640000    9893.8341   -39354.388    276.57498 0.0079848098   -29460.554    4745.8384   -3.5854295    4.6108044   0.98926802   -5.9239744    169.34059    169.17134  -0.05183812 
 7680000     30720000     9813.487   -39168.102    274.32893  -0.07070008   -29354.615    4640.3566            0            0            0            0    169.26059    169.25987 -0.016041123 
 7700000     30800000    9862.4197   -39131.001    275.69681 -0.014859481   -29268.581    4555.0855   -1.9582659    2.5428894   0.54379832   -3.2552739    169.18059    169.08758 -0.0093652711 
 7720000     30880000     9805.526   -39327.684    274.10639 -0.029210602   -29522.158    4808.4815   -1.0872076    1.4149553   0.30103714   -1.8096249    169.10059    169.04889 0.0031370621 
 7740000     30960000    9727.2898   -39086.369    271.91935 -0.052217875    -29359.08    4646.8025    1.2413744   -1.6267024  -0.34647264     2.075383    169.02059    169.07989 -0.019143479 
 7760000     31040000    9772.6072   -39166.229    273.18617 -0.086654714   -29393.621    4682.4038   -2.8094451    3.7055755   0.78044193   -4.7152265    168.94059    168.80587 -0.0024140702 
 7780000     31120000     9907.638   -39176.904    276.96086  0.027623377   -29269.266    4557.0534    2.0149939   -2.6640729  -0.55552198    3.3861615    168.86059    168.95734 0.0094640665 
 7800000     31200000    9666.1239   -39279.184     270.2095   0.12242057    -29613.06    4897.3337   -3.5071997    4.6591372   0.97563639   -5.9126877    168.78059    168.61166 0.0076966027 
 7820000     31280000    9771.7228   -39251.726    273.16144   0.11388392   -29480.004    4764.3645  -0.36656845   0.48949786   0.10286978  -0.62013126    168.70059    168.68287  0.021387546 
 7840000     31360000    9817.4021   -39179.979    274.43838  0.033207432   -29362.577     4649.779   -3.0563964    4.0849834   0.84800233   -5.1718233    168.62059    168.47283 0.0022444234 
 7860000     31440000    9939.1892   -39386.836    277.84285  0.089831578   -29447.647    4731.7314   0.66143325  -0.88883532   -0.1859852    1.1234379    168.54059    168.57269 -0.0059926801 
 7880000     31520000     9828.886   -39376.058     274.7594  0.012001934   -29547.172    4833.2029    3.9746936   -5.3696191   -1.1025869    6.7710189    168.46059    168.65405 0.00099304023 
 7900000     31600000    9889.7076   -39143.145    276.45962  0.060664412   -29253.437    4539.0609    3.0133059   -4.0837621  -0.84092546    5.1443446    168.38059    168.52757 -0.017327878 
 7920000     31680000    9837.0513    -39123.23    274.98766 -0.029234268   -29286.178    4572.8542  -0.91361064    1.2464986   0.25584225   -1.5664924    168.30059    168.25583 0.00041812442 
 7940000     31760000    9869.9867   -39285.915    275.90834 -0.027021437   -29415.928    4702.1257   0.98014457   -1.3418865  -0.27569412    1.6844435    168.22059    168.26872 0.0031516904 
 7960000     31840000    9945.9491   -39243.773    278.03182  0.027174044   -29297.824    4583.9901   -2.9966287    4.1172804   0.84030239   -5.1611907    168.14059    167.99313 -0.0025025666 
 7980000     31920000    9807.5879   -39249.842    274.16403 0.0092330049   -29442.254    4724.9019   -4.9821808    6.8622265    1.4014635   -8.5951368    168.06059    167.81502 -0.017225146 
 8000000     32000000    9909.7739   -39362.669    277.02056  0.026723829   -29452.895    4738.1331    -1.840655    2.5492481   0.52167912   -3.1872913    167.98059    167.88953 -0.017348076 
 8020000     32080000    9790.3224   -39210.786    273.68138  0.072924302   -29420.464    4707.7832   -1.2693107     1.771519   0.35944707   -2.2087624    167.90059    167.83748  0.010127056 
 8040000     32160000    9933.0998   -39110.033    277.67262 -0.041605433   -29176.933    4463.6016   -2.4849114    3.4762765   0.69847234   -4.3297975    167.82059    167.69688 0.0046671965 
 8060000     32240000    9856.7808   -39184.267    275.53918 0.0046496637   -29327.486    4613.9063   -2.5530673    3.5934238   0.72430862   -4.4671546    167.74059    167.61296  0.025186394 
 8080000     32320000      10064.7   -39168.324    281.35141  0.079643676   -29103.624    4389.2176    3.0445087   -4.2988749  -0.87460469    5.3398775    167.66059    167.81316   0.02220974 
 8100000     32400000    9828.7999   -39192.184    274.75699  0.079966765   -29363.385    4649.4961  -0.82839174    1.1721859     0.234174   -1.4543349    167.58059    167.53904 -0.0090171837 
 8120000     32480000    9935.8145   -39376.313    277.74851 -0.017274624   -29440.499    4727.0771   -1.5098971    2.1505758    0.4292772    -2.662526    167.50059    167.42452 -0.0071222659 
[...]
35420000   1.4168e+08    9743.7867   -38666.702    272.38051   0.33473573   -28922.915    6789.5766   -95.238344   -209.07201   -134.09792    266.01447    58.300588    65.901005    3664.4078 
35440000   1.4176e+08    9938.9492   -38692.634    277.83614   0.24223734   -28753.685    6675.6651   -94.036648   -205.44567   -131.13737    261.24285    58.220588    65.684673    3685.2203 
35460000   1.4184e+08    9915.2476   -38704.521    277.17358   0.26276981   -28789.273    6703.1007   -95.796956   -208.29535   -133.71687    265.41328    58.140588    65.723828    3706.1576 
35480000   1.4192e+08    9790.9188   -38754.284    273.69806   0.40412448   -28963.365    6890.4053   -96.414672    -208.8488   -133.52564    265.97501    58.060588    65.659878    3727.2798 
35500000     1.42e+08    9743.6476   -38713.868    272.37662   0.35275051   -28970.221    6937.2717   -95.060624   -206.60104    -132.7473    263.32937    57.980588    65.504288    3748.4554 
35520000   1.4208e+08    9769.9141    -38799.77    273.11088   0.26307436   -29029.856    6982.6678   -96.444067   -210.66623   -134.93707     268.1226    57.900588    65.561238    3769.7706 
35540000   1.4216e+08    9897.7675   -38600.065    276.68493   0.42965555   -28702.297    6646.2626    -99.50952   -213.10683   -136.62518    271.99836    57.820588    65.591973    3791.1737 
35560000   1.4224e+08    9897.8343   -38679.927     276.6868   0.35923562   -28782.093    6771.0134   -97.142841   -211.47417   -134.81455    268.94799    57.740588     65.42482    3812.6978 
35580000   1.4232e+08    9850.8801   -38791.943    275.37423   0.41774237   -28941.063    6913.0776   -98.418624   -214.84207   -138.62905    273.97327    57.660588      65.4884     3834.345 
35600000    1.424e+08    9803.8185   -38879.422    274.05866   0.45850579   -29075.603    7052.3421   -99.031252   -216.66364   -138.94709    275.78363    57.580588    65.460124    3856.0113 
35620000   1.4248e+08    9925.9575   -38871.221    277.47296    0.3796449   -28945.264    6951.8785   -100.07873   -215.90511   -138.24447     275.2132    57.500588    65.363826    3877.7525 
35640000   1.4256e+08    9966.1055   -38598.887    278.59527   0.40583452   -28632.782    6692.4943   -97.700172   -213.07079    -136.1443    271.07149    57.420588    65.165492     3899.532 
35660000   1.4264e+08    9841.7702   -38715.671    275.11957   0.51677456   -28873.901    6939.1277   -98.372099   -214.23918   -137.50504    272.91598    57.340588    65.138191    3921.4983 
35680000   1.4272e+08    9823.7033   -38570.634    274.61452   0.32176996   -28746.931    6820.1345    -99.71828   -215.89218   -138.23055    275.06518    57.260588    65.119597     3943.571 
35700000    1.428e+08    9945.6103   -38749.222    278.02234    0.3112096   -28803.611    6864.0063   -100.81462   -219.81363   -139.84758    279.35455    57.180588     65.16215    3965.7058 
35720000   1.4288e+08    9921.2914   -38686.148    277.34253   0.34036334   -28764.857    6867.2061   -99.004161    -218.2468   -139.09758    277.09498    57.100588    65.017591     3988.021 
35740000   1.4296e+08    9893.3874   -38674.108    276.56249   0.42055336    -28780.72    6853.7972   -103.02859   -222.53793   -142.28239    283.51772    57.020588    65.121098    4010.3972 
35760000   1.4304e+08    9789.9919   -38753.621    273.67214    0.3485892   -28963.629    7067.6656   -101.96752   -221.91026   -142.04906    282.52341    56.940588    65.012689    4032.9778 
35780000   1.4312e+08    9845.4268   -38534.831    275.22179   0.35876806   -28689.404    6795.5658   -101.94056   -223.70194    -143.7879    284.79712    56.860588    64.997652    4055.6273 
35800000    1.432e+08    9806.9711   -38750.496    274.14679   0.46780292   -28943.525    7052.3826   -103.47238   -225.54759   -144.33557    287.07316    56.780588    64.982682    4078.4331 
35820000   1.4328e+08    9879.9626   -38672.461    276.18721   0.53320735   -28792.498    6920.1765   -103.76556   -226.18999   -144.68669    287.86011    56.700588    64.925166    4101.3087 
35840000   1.4336e+08    9861.4135   -38426.411    275.66868   0.40960261   -28564.997    6719.3357   -103.87721   -225.79531   -144.24596    287.36892    56.620588    64.831132    4124.2718 
35860000   1.4344e+08    9839.3143    -38509.94    275.05092   0.48583862   -28670.626    6845.2866   -104.30786   -225.63748   -144.80802    287.68344    56.540588    64.760119    4147.3589 
35880000   1.4352e+08    9703.5045   -38552.212    271.25445    0.4277263   -28848.707    7039.3145   -104.69779     -225.758   -145.55372    288.29531    56.460588    64.697601    4170.5381 
35900000    1.436e+08    9788.1813   -38625.244    273.62153   0.49225056   -28837.063    6988.9262   -108.18785   -231.74386   -149.11667    296.05001    56.380588    64.839163    4193.8574 
35920000   1.4368e+08    9892.8711   -38498.067    276.54806   0.40504305   -28605.196    6796.2143   -105.84545   -231.59868   -147.39371     294.2212    56.300588    64.706912    4217.2976 
35940000   1.4376e+08    9954.3935   -38546.516    278.26787   0.53097342   -28592.123    6801.3294   -106.81993   -231.13569   -148.27386    294.65122    56.220588    64.639198    4240.9244 
35960000   1.4384e+08    9792.8563   -38498.583    273.75222   0.38087296   -28705.727    6925.2358   -107.79072   -232.94996   -148.48819    296.53544    56.140588    64.613033    4264.5475 
35980000   1.4392e+08    9858.6495   -38394.158    275.59142   0.38803762   -28535.509    6763.9513    -108.7399   -232.83882   -151.12042    298.12022    56.060588    64.578312    4288.1959 
36000000     1.44e+08    9783.6253   -38491.511    273.49417    0.4277783   -28707.885    6978.8334   -107.65961   -231.42033   -150.11661     296.1097    55.980588    64.440869    4311.9148 
36020000   1.4408e+08    9807.0559   -38503.466    274.14916   0.49347534    -28696.41    6987.3672   -108.22267   -231.58213   -149.60825    296.18416    55.900588    64.362996    4335.6521 
36040000   1.4416e+08    9783.0459   -38558.072    273.47797   0.45171874   -28775.026    7102.5823   -107.76339   -230.85826   -148.10141    294.69053    55.820588    64.240321    4359.5021 
36060000   1.4424e+08     9901.201   -38603.667    276.78091   0.43501328   -28702.466    7002.8161   -110.27981   -235.09513   -151.70955    300.74432    55.740588    64.333287     4383.368 
36080000   1.4432e+08    9832.4357   -38458.597    274.85863   0.48693255   -28626.162    6961.1581   -109.32283   -234.48244   -151.12518    299.62029    55.660588    64.221171    4407.3599 
36100000    1.444e+08    9818.7656   -38579.608    274.47649   0.51155726   -28760.843    7086.6476   -111.12797   -237.34152    -152.6676    303.29494    55.580588    64.246161    4431.5423 
36120000   1.4448e+08    9842.6302   -38472.424    275.14361   0.45292608   -28629.794    6990.6335   -110.04032   -237.21619   -151.43147    302.17856    55.500588    64.134265    4455.8346 
36140000   1.4456e+08    9928.0893   -38549.202    277.53256   0.54185725   -28621.113    6985.6743   -110.39659   -239.34754   -152.04304     304.2889    55.420588     64.11456    4480.2579 
36160000   1.4464e+08    9806.4867   -38392.225    274.13325    0.3602857   -28585.738    6952.0396   -112.35433   -241.30523   -153.81979    307.42843    55.340588    64.124261    4504.8262 
36180000   1.4472e+08    9891.5968   -38596.618    276.51244   0.49217181   -28705.021    7076.3136   -112.88927   -242.99446   -154.83307     309.4569    55.260588    64.102217    4529.5324 
36200000    1.448e+08     9742.399   -38459.481    272.34172   0.43982295   -28717.082    7097.6962   -114.09574   -243.79538   -155.75749    310.98942    55.180588    64.066004    4554.3177 
36220000   1.4488e+08    9821.9496   -38489.717     274.5655   0.41071436   -28667.768    7071.0581   -114.89839   -243.72132   -156.03548    311.36602    55.100588    63.996764    4579.2006 
36240000   1.4496e+08    9749.1477   -38391.102    272.53037   0.50233842   -28641.954    7020.6187   -116.22677   -248.04354   -158.96172    316.70663    55.020588    64.069353    4604.2022 
36260000   1.4504e+08    9956.0224   -38518.435    278.31341    0.4559975   -28562.413    6977.7676   -115.46157   -247.42464   -158.22893    315.57363    54.940588    63.956981    4629.3543 
36280000   1.4512e+08    9889.1706   -38402.597    276.44461   0.45206054   -28513.427    6979.1667   -114.05519   -245.18589    -157.4627    312.92045    54.860588    63.801176    4654.5521 
36300000    1.452e+08    9735.5483   -38420.678    272.15021   0.36066686   -28685.129    7121.1075   -117.72729    -249.5152   -160.63541    319.25113    54.780588    63.902053    4679.7329 
36320000   1.4528e+08    9792.5748   -38353.215    273.74435    0.3948807    -28560.64    7071.4923   -114.70344   -246.54002   -156.19761     313.5866    54.700588    63.660209    4705.0641 
36340000   1.4536e+08    9901.0199     -38419.6    276.77585   0.57081044    -28518.58    7003.3714   -115.98129   -250.57572    -159.3911    318.81871    54.620588    63.729698     4730.409 
36360000   1.4544e+08    9866.4753   -38398.078    275.81018   0.53277792   -28531.602    7022.4349   -117.45147   -252.24046   -159.93012    320.93261    54.540588    63.710095    4755.9276 
36380000   1.4552e+08     9774.024   -38501.146    273.22577   0.54218152   -28727.122    7262.4098   -116.46059   -250.50459   -159.16173    318.82296    54.460588    63.569819    4781.6539 
36400000    1.456e+08    9805.6985   -38363.339    274.11121   0.47607759    -28557.64    7085.1885   -118.00384   -253.76019   -160.02947    322.37954    54.380588    63.591436     4807.442 
36420000   1.4568e+08    9775.1219   -38388.337    273.25646   0.40941605   -28613.215    7111.6359   -120.84144   -257.52207   -164.70827     328.7082    54.300588    63.692255    4833.4066 
36440000   1.4576e+08     9836.875    -38477.23    274.98273   0.50033014   -28640.355      7213.29    -118.8126   -253.78214   -161.16005    323.25588    54.220588    63.456474    4859.5632 
36460000   1.4584e+08     9820.064   -38479.766    274.51279    0.4225871   -28659.702    7214.0434   -120.81578   -258.12056   -162.69933    328.16726    54.140588    63.516799    4885.7027 
36480000   1.4592e+08    9803.2289    -38550.94    274.04218   0.42750467   -28747.711    7291.0992   -121.20385   -261.28075    -164.4574    331.66887    54.060588    63.536845    4911.9275 
36500000     1.46e+08    9860.0681   -38519.749    275.63107   0.48265678   -28659.681    7246.3481   -120.66618   -259.79286    -164.7045    330.42432    53.980588    63.421287    4938.1979 
36520000   1.4608e+08    9871.3467   -38355.455    275.94636   0.59221426   -28484.108    7109.2283   -120.84535   -258.29324   -163.84988    328.88567    53.900588    63.297325    4964.6354 
36540000   1.4616e+08    9622.6469   -38376.162    268.99414   0.36236575   -28753.515    7381.5369   -121.98698   -259.96886   -165.80704    331.59706    53.820588    63.294793    4991.1631 
36560000   1.4624e+08    9800.0445    -38374.13    273.95316   0.53010492   -28574.085    7195.4582   -122.94148   -263.21524   -166.86217    335.02217    53.740588    63.312654    5017.8538 
36580000   1.4632e+08    9847.3839   -38258.489     275.2765   0.44813797   -28411.105    7074.7447   -122.05292   -262.83452   -165.10562    333.52476    53.660588    63.189871    5044.6698 
36600000    1.464e+08    9728.7568   -38198.085    271.96036   0.47796921   -28469.328    7118.0216   -123.90534   -265.22942   -168.71535    337.88171    53.580588    63.234355    5071.6162 
36620000   1.4648e+08     9913.205   -38349.203    277.11648   0.49561368   -28435.997    7114.4596   -123.16331   -264.88537   -168.97313    337.46908    53.500588    63.142565    5098.5309 
36640000   1.4656e+08     9846.968   -38451.918    275.26487   0.44409372    -28604.95    7307.4287   -123.85919   -264.71639   -168.61979    337.41444    53.420588    63.061004    5125.4849 
36660000   1.4664e+08    9788.2575   -38337.115    273.62366   0.50019232   -28548.857    7258.1014   -123.63927   -267.72635   -168.84535    339.81292    53.340588    63.049532    5152.5981 
36680000   1.4672e+08    9866.9536   -38336.379    275.82355   0.52927949   -28469.425    7207.4429   -124.08888    -266.9595   -168.96925    339.43487    53.260588    62.958731    5179.8411 
36700000    1.468e+08    9910.1947   -38429.571    277.03233   0.47752163   -28519.376    7220.9255    -126.4199   -271.88094   -172.86918    346.09968    53.180588    63.069154    5207.1719 
36720000   1.4688e+08    9805.3846   -38228.276    274.10244   0.44416377   -28422.891    7245.5944   -123.77083   -264.61747   -167.25719    336.62529    53.100588    62.718457      5234.64 
36740000   1.4696e+08    9827.5997   -38257.166    274.72344   0.47334271   -28429.566    7188.9491   -126.17751   -272.72861   -171.27459    345.88531    53.020588    62.903029    5262.2771 
36760000   1.4704e+08    9809.5064   -38217.357    274.21766   0.47263749    -28407.85    7249.3544   -124.41046    -268.2479   -168.38488     340.2769    52.940588    62.662789    5289.9537 
36780000   1.4712e+08    9932.6455   -38241.707    277.65992    0.4783684   -28309.062    7119.0667   -126.97164   -272.81463   -171.82948    346.51838    52.860588    62.761117    5317.6322 
36800000    1.472e+08    9678.6614   -38294.746    270.55998   0.52049587   -28616.085    7414.7838   -126.71706   -275.63687   -174.72668      350.089    52.780588    62.783135    5345.4712 
36820000   1.4728e+08    9729.7662   -38190.085    271.98858   0.61867721   -28460.318    7272.8465   -129.09149   -276.45443   -174.77778    351.62329    52.700588    62.746972    5373.3282 
36840000   1.4736e+08    9908.8652   -38218.523    276.99516   0.54002971   -28309.658    7136.6642   -128.77686   -277.13141   -176.54979    352.92369    52.620588    62.704126    5401.3047 
36860000   1.4744e+08    9902.5045   -38241.075    276.81735   0.56632988   -28338.571    7172.7505   -128.44532   -279.41059   -177.20434    354.92232    52.540588    62.681229    5429.4167 
36880000   1.4752e+08    9903.1609   -38102.209     276.8357    0.5024214   -28199.048    7103.8191   -128.33048   -275.61308   -175.21433    350.90077    52.460588    62.486328    5457.6135 
36900000    1.476e+08    9808.9336    -38073.93    274.20165    0.5932821   -28264.997    7178.9359   -128.96608   -278.05135   -174.49461    352.69416    52.380588    62.457568    5485.8769 
36920000   1.4768e+08    9704.1824   -38162.187     271.2734   0.55401617   -28458.005    7415.9077   -127.99763   -276.28177   -174.69657    351.04686    52.300588    62.330502    5514.1516 
36940000   1.4776e+08    9799.7147   -38258.431    273.94394   0.55191129   -28458.717    7418.6219   -129.78174   -278.91681   -174.79855    353.82541    52.220588    62.329889    5542.4116 
36960000   1.4784e+08    9878.1454   -38093.521    276.13641   0.56241131   -28215.376    7196.6106    -129.4816   -278.36664   -176.94282    354.34761    52.140588    62.264809    5570.7681 
36980000   1.4792e+08    9724.0643   -38080.738    271.82919    0.5502253   -28356.674    7305.9833   -131.16565   -282.98655   -180.46424    360.35144    52.060588    62.356347    5599.1877 
37000000     1.48e+08    9806.0191   -38016.184    274.12017    0.6802092   -28210.165    7220.5143   -129.64582   -281.27602   -177.73918    357.09306    51.980588    62.183251     5627.621 
37020000   1.4808e+08    9961.3805   -38161.001    278.46319     0.490523   -28199.621    7225.8656   -130.88828   -280.95174   -179.73505    358.28803    51.900588    62.137393    5656.1508 
37040000   1.4816e+08    9881.8916   -38070.739    276.24113    0.5277079   -28188.847    7304.9845   -129.02164   -276.77865   -175.84239    352.38268    51.820588    61.888668    5684.8306 
37060000   1.4824e+08    9917.1434   -38106.495    277.22657   0.46906361   -28189.351    7291.4896   -128.94482    -280.0269   -178.87837    356.42573    51.740588    61.924184    5713.3775 
37080000   1.4832e+08    9910.1161   -38093.884    277.03013   0.58615939   -28183.768    7292.9284   -130.62969   -281.12657   -180.02067    358.47413    51.660588     61.90271    5742.1345 
37100000    1.484e+08    9699.0241   -37995.995    271.12921   0.43225104   -28296.971    7373.6103    -133.3772   -286.74117   -181.96422    364.85745    51.580588     62.00509     5771.003 
37120000   1.4848e+08    9763.2357   -38156.087    272.92419   0.43907589   -28392.851    7484.9738   -133.61715   -287.97408   -182.35962    366.11152    51.500588    61.960921    5800.0003 
37140000   1.4856e+08    9791.8744   -37781.622    273.72477   0.50730813   -27989.748    7146.5554   -131.47706   -285.62744   -180.58608    362.60252    51.420588    61.780664    5829.1294 
37160000   1.4864e+08    9843.3363   -37958.193    275.16335   0.47391392   -28114.856    7328.8082   -130.33394   -283.39136   -179.04621    359.65976    51.340588    61.616585    5858.1831 
37180000   1.4872e+08    9865.0376   -37929.076    275.76999   0.49605949   -28064.038      7257.43   -132.77255   -287.01899   -181.96536    364.85593    51.260588    61.685047    5887.2313 
37200000    1.488e+08    9759.3188   -37927.995     272.8147   0.48144455   -28168.676    7418.6396    -131.7503   -285.15915   -179.91943    362.00122    51.180588    61.523484    5916.2868 
37220000   1.4888e+08    9850.7603   -38091.295    275.37088   0.37725498   -28240.534    7480.1662   -132.80492   -287.06629   -183.40291    365.62389    51.100588    61.546989    5945.3883 
37240000   1.4896e+08     9845.709   -38017.835    275.22967   0.34821757   -28172.126     7401.331   -134.81794   -290.44177    -184.2801     369.4475    51.020588    61.576235    5974.4321 
37260000   1.4904e+08    9693.4672   -38146.916    270.97387   0.36186566   -28453.449      7716.22   -134.13865   -289.99503   -184.70691    369.06224    50.940588    61.485227    6003.5361 
37280000   1.4912e+08    9928.0684   -37851.553    277.53197   0.61296659   -27923.485    7231.4503   -133.70518   -288.22348   -184.28266    367.30089    50.860588    61.354903    6032.8617 
37300000    1.492e+08    9743.8098   -37831.664    272.38116   0.49574577   -28087.854    7467.6305   -133.19078   -285.15362   -181.13904    363.13045    50.780588    61.155747    6062.2568 
37320000   1.4928e+08    9764.7824   -37938.334    272.96743   0.55953866   -28173.551    7472.4451   -137.31856   -293.34977   -186.60133    373.80547    50.700588    61.380748    6091.7231 
37340000   1.4936e+08    9856.9043   -37906.037    275.54263   0.48902037   -28049.132    7404.6476   -136.07914   -291.64245   -185.18813    371.30513    50.620588     61.22931    6121.3202 
37360000   1.4944e+08    9870.2854   -37798.407    275.91669   0.56883156   -27928.122    7317.1071   -136.25818   -290.99963   -185.21789    370.88103    50.540588    61.137193    6150.9875 
37380000   1.4952e+08     9860.226   -37912.938    275.63549   0.56473177   -28052.712      7446.04   -136.12361   -293.41571   -186.41074    373.32477    50.460588    61.127014    6180.7124 
37400000    1.496e+08    9890.5178   -37849.267    276.48227   0.53272219   -27958.749    7419.2114   -135.90008   -289.94697   -184.83642    369.73312    50.380588    60.944395     6210.545 
37420000   1.4968e+08    9869.4204   -37687.485    275.89251   0.45821579   -27818.064    7292.0684   -137.25962   -291.83569   -184.35046    371.47458    50.300588    60.914151    6240.4279 
37440000   1.4976e+08    9855.3173   -37931.071    275.49827   0.51140954   -28075.753     7529.618    -139.3956    -294.3545   -187.85492    375.98561    50.220588    60.963038    6270.4527 
37460000   1.4984e+08     9793.416    -37660.36    273.76786   0.51019259   -27866.944    7344.0007   -139.32062   -295.91995   -187.01587    376.76755    50.140588    60.905379    6300.5813 
37480000   1.4992e+08    9786.7007     -37863.6    273.58014   0.61033145   -28076.899    7578.4276   -136.91826   -295.69739   -189.25424    376.82983    50.060588    60.827158    6330.6188 
