LAMMPS (29 Oct 2020)
################################################################################################################
# Template input file to run umbrella sampling
# run 200000 steps0
# read from restart file
# deleted velocity line
# reset timestep to 0 befre running the simulation
################################################################################################################

################################################################################################################
# VARIABLES
################################################################################################################
clear
variable rcut        equal 17.5     #est. 3.5*diameter
variable epsilon     equal 0.8126   #unit conversion
variable sigma       equal 4.7
variable shift       equal 23.5     #center particle radius
variable epsilon_cp  equal 0.5067
variable sigma_cp    equal 5.2
variable epsilon_pp  equal 1.1926
variable sigma_pp    equal 4.7
variable bondKeq     equal 2.9876
variable bondReq1    equal 23.5
variable bondReq2    equal 4.7
variable dt          equal 4.0
variable startTemp   equal 275.0
variable stopTemp    equal 275.0
variable Tdamp       equal 100.0
variable springKeq   equal 35.0
variable velocity    equal -0.0001
variable springX     equal 200.0
variable springY     equal 0.0
variable springZ     equal 0.0
variable springReq   equal 0.0

################################################################################################################
# SETUP
################################################################################################################
units		real
atom_style	molecular
atom_modify     sort 0 0.0       #print out in frames in order

read_data       data.twoParticles
Reading data file ...
  orthogonal box = (0.0000000 0.0000000 0.0000000) to (1000.0000 1000.0000 1000.0000)
  2 by 2 by 2 MPI processor grid
  reading atoms ...
  12002 atoms
  scanning bonds ...
  600 = max bonds/atom
  reading bonds ...
  12000 bonds
Finding 1-2 1-3 1-4 neighbors ...
  special bond factors lj:    0.0      0.0      0.0     
  special bond factors coul:  0.0      0.0      0.0     
   600 = max # of 1-2 neighbors
   600 = max # of 1-3 neighbors
  1200 = max # of 1-4 neighbors
  1800 = max # of special neighbors
  special bonds CPU = 0.055 seconds
  read_data CPU = 0.089 seconds
velocity        all create ${startTemp} 4834834 rot yes mom yes dist gaussian        #turn off rotation and momentum of the particles
velocity        all create 275 4834834 rot yes mom yes dist gaussian        

#read_restart    generic.restart

pair_style	lj/expand ${rcut}
pair_style	lj/expand 17.5
pair_coeff      1 1 0 0 0
pair_coeff      1 2 ${epsilon} ${sigma} ${shift}
pair_coeff      1 2 0.8126 ${sigma} ${shift}
pair_coeff      1 2 0.8126 4.7 ${shift}
pair_coeff      1 2 0.8126 4.7 23.5
pair_coeff      1 3 ${epsilon} ${sigma} ${shift}
pair_coeff      1 3 0.8126 ${sigma} ${shift}
pair_coeff      1 3 0.8126 4.7 ${shift}
pair_coeff      1 3 0.8126 4.7 23.5
pair_coeff      2 2 ${epsilon} ${sigma} 0
pair_coeff      2 2 0.8126 ${sigma} 0
pair_coeff      2 2 0.8126 4.7 0
pair_coeff      2 3 ${epsilon_cp} ${sigma_cp} 0
pair_coeff      2 3 0.5067 ${sigma_cp} 0
pair_coeff      2 3 0.5067 5.2 0
pair_coeff      3 3 ${epsilon_pp} ${sigma_pp} 0
pair_coeff      3 3 1.1926 ${sigma_pp} 0
pair_coeff      3 3 1.1926 4.7 0
special_bonds   lj 0.0 1.0 1.0   #turn off LJ interaction for directly bonded atoms (1-2)
Finding 1-2 1-3 1-4 neighbors ...
  special bond factors lj:    0.0      1.0      1.0     
  special bond factors coul:  0.0      0.0      0.0     
   600 = max # of 1-2 neighbors
   600 = max # of 1-3 neighbors
  1200 = max # of 1-4 neighbors
  1800 = max # of special neighbors
  special bonds CPU = 0.052 seconds

bond_style      harmonic
bond_coeff      1 ${bondKeq} ${bondReq1}
bond_coeff      1 2.9876 ${bondReq1}
bond_coeff      1 2.9876 23.5
bond_coeff      2 ${bondKeq} ${bondReq2}
bond_coeff      2 2.9876 ${bondReq2}
bond_coeff      2 2.9876 4.7
bond_coeff      3 ${bondKeq} ${bondReq2}
bond_coeff      3 2.9876 ${bondReq2}
bond_coeff      3 2.9876 4.7
bond_coeff      4 ${bondKeq} ${bondReq2}
bond_coeff      4 2.9876 ${bondReq2}
bond_coeff      4 2.9876 4.7

neighbor	2.0 bin            #consider cutoff +2 as neighbor
neigh_modify	every 1 delay 0 check yes     #every x step//no delay//check the neighbor list to see if need to update

restart         10 nvt.a.restart nvt.b.restart  #print restart every 10 ?steps?

timestep	${dt}
timestep	4

################################################################################################################
# SIMULATION
################################################################################################################
group           centroid1 id 1           # define group names
1 atoms in group centroid1
group           centroid2 id 6002
1 atoms in group centroid2

fix		1 all nvt temp ${startTemp} ${stopTemp} ${Tdamp}            #last number is how aggressive we want to derive the T back
fix		1 all nvt temp 275 ${stopTemp} ${Tdamp}            
fix		1 all nvt temp 275 275 ${Tdamp}            
fix		1 all nvt temp 275 275 100            
fix             2 centroid1 smd cvel ${springKeq} ${velocity} couple centroid2 auto auto auto ${springReq}
fix             2 centroid1 smd cvel 35 ${velocity} couple centroid2 auto auto auto ${springReq}
fix             2 centroid1 smd cvel 35 -0.0001 couple centroid2 auto auto auto ${springReq}
fix             2 centroid1 smd cvel 35 -0.0001 couple centroid2 auto auto auto 0

thermo_style    custom step time ke pe temp press etotal f_1 f_2[1] f_2[2] f_2[3] f_2[4] f_2[5] f_2[6] f_2[7] # SMD fix computes a "vector" of numbers, have to print the individual elements, as thermo custom only prints scalar numbers (7 quantities described in manual)
thermo          200                  #give an output every x step

dump            1 all custom 200 twoParticles.lammpstrj id type element xu yu zu fx fy fz    #print every x step
dump_modify     1 element A B C     #give element names

run		400000
Neighbor list info ...
  update every 1 steps, delay 0 steps, check yes
  max neighbors/atom: 2000, page size: 100000
  master list distance cutoff = 43
  ghost atom cutoff = 43
  binsize = 21.5, bins = 47 47 47
  1 neighbor lists, perpetual/occasional/extra = 1 0 0
  (1) pair lj/expand, perpetual
      attributes: half, newton on
      pair build: half/bin/newton
      stencil: half/bin/3d/newton
      bin: standard
Per MPI rank memory allocation (min/avg/max) = 195.3 | 196.0 | 197.1 Mbytes
Step Time KinEng PotEng Temp Press TotEng f_1 f_2[1] f_2[2] f_2[3] f_2[4] f_2[5] f_2[6] f_2[7] 
       0            0    9837.4929     -34496.1          275  0.038604638   -24658.607            0            0            0            0            0    199.98019    199.98059            0 
     200          800    9834.5061   -34418.904    274.91651  0.027053761   -24584.398   -72.146237    3.1110598 0.0013456642 -0.000291398    3.1110601    199.90019    199.98948   0.10007627 
     400         1600    9867.2977   -34392.138    275.83317 0.0031559924    -24524.84    -129.1054    3.7317397 -0.00039327186  0.002726206    3.7317407    199.82019    199.92721   0.28683184 
     600         2400    9769.8967   -34423.107     273.1104 -0.035977373    -24653.21  -0.43049373    1.1602856 0.00034596847 0.0001162222    1.1602856    199.74019    199.77374   0.52233221 
     800         3200    9781.6736   -34452.608    273.43961  0.070036641   -24670.935    15.478104     3.844399 0.0032952906 0.00045074565    3.8444005    199.66019    199.77043   0.72539081 
    1000         4000    9892.5232   -34448.994    276.53833  0.050678301   -24556.471   -98.737286    6.8708812 0.0069173142 0.0021449032    6.8708851    199.58019     199.7769    1.1592552 
    1200         4800    9790.4288   -34447.977    273.68436  0.059334279   -24657.549    1.3868388    11.134535  0.008638712 -0.002986219    11.134539    199.50019    199.81872    1.8720162 
    1400         5600    9875.6928   -34471.914    276.06785  0.020607773   -24596.221   -58.871569    9.7383791 0.0071759646 -0.0057540079    9.7383834    199.42019    199.69883      2.73173 
    1600         6400    9811.7618   -34544.183    274.28071  -0.09939904   -24732.421    77.340819    12.596428 0.0099419764 -0.00055923409    12.596432    199.34019    199.70049    3.6701416 
    1800         7200    9823.2876   -34453.869     274.6029  0.015478796   -24630.582   -22.640076    8.7141468  0.014547568 0.0031579809    8.7141596    199.26019    199.50957    4.5659069 
    2000         8000    9945.0951   -34540.976    278.00794  -0.06650138   -24595.881   -56.309146    6.0880362  0.010949741  0.005283333    6.0880483    199.18019    199.35454    5.0391553 
    2200         8800    9738.4691   -34571.731    272.23186   0.11767337   -24833.262    180.85061    6.8008034 0.0075103932 0.0076426032    6.8008118    199.10019     199.2949    5.6520086 
    2400         9600    9860.6419   -34500.703    275.64711  0.017304103   -24640.061    -13.59452    2.5654356 0.0028581462 0.0032890155    2.5654393    199.02019    199.09389    5.9567706 
    2600        10400    9813.6858    -34649.02    274.33449  0.096296184   -24835.335    180.39355    3.9134593 0.0057598307 0.0051672924     3.913467    198.94019     199.0524    6.1585034 
    2800        11200    9825.7618   -34631.564    274.67207  0.041098305   -24805.802     153.0681    -0.479706 -0.00028234089 -0.00063503296   -0.4797065    198.86019    198.84689    6.2762495 
    3000        12000    9811.4337   -34415.882    274.27153 -0.065591328   -24604.449   -48.508775   -4.7184931 -0.0034028298 -0.0077503117   -4.7185007    198.78019    198.64578    6.0551853 
    3200        12800    9759.2621   -34580.462    272.81312 -0.041127037     -24821.2    167.69309   -1.3420317 0.00099968224 -0.0018973635   -1.3420334    198.70019    198.66225    5.7317529 
    3400        13600    9813.6966   -34677.611    274.33479   0.03309792   -24863.915    209.88322    -1.010883 0.00036967129 -0.00074115142   -1.0108833    198.62019    198.59171    5.6804648 
    3600        14400    9911.2382   -34693.026     277.0615  0.079781516   -24781.788    127.78633   -2.5103763 -4.9492488e-05 -0.0012716331   -2.5103766    198.54019    198.46887    5.5030463 
    3800        15200    9798.5211    -34633.54    273.91057 -0.061174361   -24835.018     180.4693   -1.1002045 0.00059393455 -0.00071158892   -1.1002049    198.46019    198.42916    5.4175458 
    4000        16000    9966.8417   -34768.406    278.61585 -0.078748778   -24801.564    144.92655   -2.3671385 0.0015620312 -3.3192821e-05    -2.367139    198.38019    198.31296    5.1957964 
    4200        16800    9841.7271   -34815.676    275.11836  0.031343679   -24973.948    314.95812   -5.2605096 0.0045995836 -0.00048451659   -5.2605117    198.30019    198.15029    4.8967109 
    4400        17600    9777.4554   -34768.257     273.3217  0.024553923   -24990.802    331.91333   0.40449675 -0.0001931483 0.00013486735   0.40449682    198.22019    198.23215    4.7376418 
    4600        18400    9932.8604   -34770.545    277.66593  0.031800255   -24837.685    180.43781   -1.5973615 0.0009264602 -0.00065154935   -1.5973619    198.14019    198.09495    4.6625364 
    4800        19200    9924.8582   -34694.035    277.44224 -0.059059907   -24769.177    113.60808   -2.5623982 0.0027897541 -0.00046343508   -2.5623997    198.06019    197.98738    4.4152407 
    5000        20000    9982.9893   -34684.788    279.06725 -0.084860038   -24701.798    45.623697   -2.5533121 0.0014911236 -0.002112804   -2.5533135    197.98019    197.90764    4.2221643 
    5200        20800    9947.5883   -34801.855    278.07764  0.029570379   -24854.267    196.37523   -3.2833451 -0.00016958246 -0.0027057231   -3.2833462    197.90019    197.80678    3.8592308 
    5400        21600    9801.1249   -34822.608    273.98336   0.11413547   -25021.483    361.93188   -3.9125716 -0.0014645059 -0.0043720577   -3.9125743    197.82019     197.7088    3.5154975 
    5600        22400    9911.9947   -34856.954    277.08265 -0.024764699   -24944.959    284.67879   -4.7783555 -0.0011808536 -0.006828524   -4.7783606    197.74019    197.60407    3.2394708 
    5800        23200    9856.7321   -34674.664    275.53782 -0.043520676   -24817.932    159.42894   -5.6307546 0.00086376351 -0.0085133638   -5.6307611    197.66019    197.49971    2.8904338 
    6000        24000    9808.0904   -34798.734    274.17807 -0.095893423   -24990.644    331.71743   -3.2142246 -0.00033187297 -0.0053355711    -3.214229    197.58019    197.48876    2.5571296 
    6200        24800    9716.2006   -34966.928    271.60936 -0.050907835   -25250.727    589.90342   -1.0781606 -0.00018203592 -0.00098142451   -1.0781611    197.50019    197.46979    2.4550082 
    6400        25600    9791.2056   -34970.847    273.70607 -0.040299157   -25179.641    515.32278   -4.7076437 0.0012289655 -0.0060954047   -4.7076478    197.42019    197.28609    2.2030908 
    6600        26400    9755.7775   -34809.127     272.7157  0.050207915    -25053.35    391.25517   -2.7764665  0.002831458 -0.0025920798   -2.7764691    197.34019    197.26126    1.9472712 
    6800        27200     9890.258   -35083.959    276.47501  -0.10340528   -25193.701    532.21342   -3.8304744 0.0045887945 -0.0023392778   -3.8304779    197.26019    197.15115    1.5195634 
    7000        28000    9954.8948   -34777.358    278.28188 -0.051090913   -24822.464    161.70819   -1.7958462 0.0026025985 -0.00034106792   -1.7958482    197.18019    197.12928    1.2109076 
    7200        28800    9854.2995   -34851.338    275.46982 -0.038655772   -24997.039    336.44931   -2.5141461 0.0046149277 0.0016016208   -2.5141508    197.10019    197.02876    1.0523128 
    7400        29600    9827.2517   -34762.115    274.71371  0.034879883   -24934.863    272.40403 -0.065077649 4.9302088e-05 1.9749172e-05  -0.06507767    197.02019    197.01873   0.84081626 
    7600        30400    9902.5418   -34916.932     276.8184 0.00082607466    -25014.39    350.92256    1.5967017 -0.0020712346 -0.00038446116    1.5967031    196.94019    196.98621   0.93728594 
    7800        31200    9857.4898   -34928.939      275.559  0.049857757    -25071.45    408.68461    1.7039296 -0.0016778494 -0.00033590216    1.7039305    196.86019    196.90928    1.1099697 
    8000        32000    9863.0931   -34928.065    275.71563  0.029512867   -25064.972      403.485    2.0612066 -0.00063797687 -0.0018547927    2.0612076    196.78019    196.83948    1.4091121 
    8200        32800    9726.6865    -34973.75    271.90249 -0.079909174   -25247.064    587.08968    1.5247314 -0.00046411817 0.00088070197    1.5247317    196.70019    196.74416     1.530184 
    8400        33600    9823.0375   -34860.973    274.59591  -0.11005355   -25037.936    377.32532    6.0321939 -0.0060512052 0.0014730112    6.0321971    196.62019    196.79294    1.8575727 
    8600        34400     9836.669   -34770.615    274.97697  0.043018447   -24933.946    271.28812    5.8944191 -0.0029664259 0.0028826076    5.8944205    196.54019      196.709    2.2228339 
    8800        35200    9726.7229   -34906.569    271.90351  0.043372061   -25179.846    517.09429    2.9797713 -0.0019799567 0.0014827202    2.9797723    196.46019    196.54573    2.5893131 
    9000        36000    9688.6238   -35074.392    270.83847  0.019156027   -25385.769    723.03412    5.1026914 -0.0017585936 0.0033977134    5.1026929    196.38019    196.52638    2.9848658 
    9200        36800    9850.1222   -34946.238    275.35304 0.0079884785   -25096.115    434.58993    5.8272028 -0.0038075014 0.0089256054    5.8272109    196.30019    196.46708    3.5599929 
    9400        37600    9900.3597   -35013.758     276.7574 -0.010938241   -25113.399    453.33976    4.6425989 -0.0060117761 0.0058720449    4.6426065    196.22019    196.35324    3.8779641 
    9600        38400     9829.497   -35063.778    274.77648 0.0010968986   -25234.281    572.81508    4.6497047 -0.0082299086 0.0034506521    4.6497132    196.14019    196.27344     4.222723 
    9800        39200    9723.1651   -35269.806    271.80405 -0.046391983   -25546.641     885.7329     7.695973 -0.017804979 0.0073218964    7.6959971    196.06019    196.28048    4.7404569 
   10000        40000    9727.3969   -35151.211    271.92235 0.0040434277   -25423.814    763.53556    3.6182607 -0.010478944 0.0025294505    3.6182768    195.98019    196.08397    5.2380631 
   10200        40800    9947.7675   -35228.165    278.08265 -0.061536257   -25280.398    619.54365    2.6052983 -0.005889574 0.00032734129     2.605305    195.90019    195.97503    5.4411159 
   10400        41600    9785.8976   -35170.487    273.55769 -0.005873785   -25384.589    723.65956  -0.34356495 0.00071538195 -2.4772145e-05  -0.34356569    195.82019    195.81078    5.5538363 
   10600        42400    9845.8326   -35282.538    275.23313  0.057669525   -25436.706    775.50962   -2.6003596 0.0054719274 0.00088502716   -2.6003655    195.74019     195.6663    5.4017304 
   10800        43200    9815.3464   -35173.937    274.38091  0.042127878   -25358.591    697.62869   -5.8100746 0.0067671751 -0.00055050112   -5.8100785    195.66019    195.49459     5.120138 
   11000        44000    9802.7801   -35266.735    274.02963  0.015955703   -25463.955    803.17411   -7.2218567 0.0080723949 0.00085807107   -7.2218612    195.58019    195.37425    4.6301667 
   11200        44800    9889.0931   -35194.781    276.44245  0.027728902   -25305.688    643.47271   -8.6199098  0.011658696 0.0094873522   -8.6199229    195.50019    195.25431    4.0228378 
   11400        45600    9813.9008   -35243.177     274.3405 0.0019594928   -25429.276    764.68499   -10.100128  0.013831305 0.0082657812   -10.100141    195.42019    195.13202    3.1966105 
   11600        46400    9890.5952   -35166.841    276.48444  0.032096768   -25276.246    610.92575   -5.6847316  0.010830113 0.0013652433   -5.6847421    195.34019    195.17817     2.632789 
   11800        47200     9856.661   -35371.375    275.53583  0.066777808   -25514.714    848.57729   -4.8219309  0.008327294  0.003573125   -4.8219394    195.26019    195.12282    2.1623607 
   12000        48000    9801.2071   -35348.423    273.98566  0.017132546   -25547.216    879.63481    2.7894837 -0.0041026784 -0.0043849207    2.7894902    195.18019    195.26029    1.9800465 
   12200        48800    9794.9209   -35268.835    273.80993   0.13559952   -25473.914    807.21545    6.4461493 -0.0069070841 -0.0096799974    6.4461602    195.10019    195.28477    2.4804773 
   12400        49600    9778.9938   -35312.154     273.3647 -0.033384208    -25533.16    869.09843    2.4681866 -0.0049138527 -0.0026399241    2.4681929    195.02019    195.09111    2.7441394 
   12600        50400    9756.9389   -35258.564    272.74817 -0.035780344   -25501.625    838.19306    5.3233907 -0.008717049 -0.0076846722    5.3234034    194.94019    195.09269    3.0351434 
   12800        51200    9926.8203    -35221.73    277.49708 -0.022471451   -25294.909    630.24639    5.8956421 -0.013133834 -0.0068307824    5.8956607    194.86019    195.02904    3.5649161 
   13000        52000    9862.9759   -35243.257    275.71236   0.10484735   -25380.281    714.88341    6.0857157 -0.012800483 -0.0069587954    6.0857331    194.78019    194.95447    4.0338854 
   13200        52800    9920.8588   -35383.306    277.33043  0.095913815   -25462.447    798.08261  0.089356059 -0.00020871532 -0.0001231466  0.089356387    194.70019    194.70314    4.3872079 
   13400        53600    9873.5047   -35327.918    276.00668 -0.082449105   -25454.413    791.48661    -3.580658 0.0079707604  0.004105983   -3.5806692    194.62019    194.51829    4.2263159 
   13600        54400    9942.8862   -35334.571    277.94619  -0.12349069   -25391.685    729.47116   -2.5273849 0.0061480036 0.0027883809   -2.5273939    194.54019    194.46838    4.0350187 
   13800        55200     9941.999   -35370.202    277.92139 -0.078648075   -25428.203    763.47321    -1.745259 0.0044441945 0.0019523661   -1.7452658    194.46019    194.41073    3.9039374 
   14000        56000    9786.7041   -35407.237    273.58024   0.11102685   -25620.532    953.68394   -1.6151398 0.0033541723 0.0015231217    -1.615144    194.38019    194.33444     3.668739 
   14200        56800    9891.0763   -35511.815    276.49788  0.023944089   -25620.739    954.45058   -1.0059535 0.0020173565 0.0015998683   -1.0059568    194.30019    194.27185    3.5831419 
   14400        57600    9817.8538   -35482.249      274.451  -0.05757576   -25664.395    999.28664    1.2761748 -0.0028275501 -0.0011338288    1.2761784    194.22019    194.25705    3.5205528 
   14600        58400    9723.7711   -35364.576    271.82099 -0.060357699   -25640.805    977.29222     1.296632 -0.0024618103 -0.001417156    1.2966351    194.14019    194.17764    3.6917396 
   14800        59200    9720.9496   -35345.539    271.74212  0.052785327   -25624.589    961.00768  -0.76430259  0.001554953 0.00037799708  -0.76430427    194.06019    194.03875    3.6866255 
   15000        60000     9847.628    -35482.38    275.28332 0.0062737456   -25634.752     969.5718   0.54401592 -0.0013192271 -0.00027128339   0.54401759    193.98019    193.99614    3.5954964 
   15200        60800    9813.7352   -35522.895    274.33587  -0.10042629    -25709.16    1041.8417   -1.9688548 0.0051282606 0.00027964769   -1.9688615    193.90019    193.84434    3.5885806 
   15400        61600    9749.1012   -35483.532    272.52907  0.012042952   -25734.431    1067.0582    1.4861083 -0.0042413742 -0.0015388156    1.4861151    193.82019    193.86305    3.6338803 
   15600        62400    9910.3831    -35371.23    277.03759 -0.019272247   -25460.847    795.41171    3.0640547 -0.0088822023 -0.0029440251     3.064069    193.74019    193.82814    3.8069482 
   15800        63200    9862.9008   -35372.682    275.71026  -0.10207211   -25509.781    845.80914    3.3993375 -0.011052883 -0.0059124828    3.3993606    193.66019    193.75772    4.1172168 
   16000        64000    9727.9433   -35359.568    271.93762 -0.034693357   -25631.624    965.83087   0.40564677 -0.0009860234 -0.00093722676   0.40564905    193.58019    193.59218    4.3068637 
   16200        64800    9808.1632    -35575.67    274.18011   0.17183389   -25767.507    1099.9024  0.066764402 -0.00013596222 -0.00012609192  0.066764659    193.50019     193.5025    4.3258269 
   16400        65600    9791.4202    -35546.57    273.71207   0.10915267    -25755.15    1086.5992    1.6292099 -0.0047365743 -0.0034586683    1.6292205    193.42019    193.46714    4.2577004 
   16600        66400    9733.6383   -35357.056    272.09682 -0.055493385   -25623.418    958.25934   -1.9863567 0.0062367989 0.0045874258   -1.9863718    193.34019    193.28384    4.2372933 
   16800        67200    9871.8355   -35368.542    275.96002 -0.098954614   -25496.706    833.96095   -4.0484495  0.012494459  0.011238859   -4.0484844    193.26019    193.14492    4.0346592 
   17000        68000    9800.2942   -35371.209    273.96014 -2.0860925e-05   -25570.914    907.13683   0.75547387 -0.0017646068 -0.0014509519   0.75547732    193.18019    193.20218    3.9034823 
   17200        68800    9759.2857   -35513.284    272.81377 -0.012682669   -25753.998    1086.9469   0.10480618 -0.00031803803 -0.00017761799   0.10480681    193.10019    193.10359    3.8827998 
   17400        69600    9727.7729   -35489.194    271.93286   0.12736532   -25761.421    1091.0838  -0.61281676 0.0019870596 0.00067232113  -0.61282035    193.02019    193.00308    3.8573549 
   17600        70400     9803.215   -35575.012    274.04179 -0.056616191   -25771.797    1102.4779   0.80904054 -0.0022992941 -0.00048968664   0.80904396    192.94019    192.96371    3.9059632 
   17800        71200    9706.1131   -35526.863    271.32737  0.026485112    -25820.75    1155.2964   0.36365501 -0.0011141459 -0.0004383116   0.36365698    192.86019    192.87098    3.8574963 
   18000        72000    9977.7894   -35537.417    278.92189 -0.024637152   -25559.627    894.15116    3.9151597 -0.012360283 -0.0042944928    3.9151816    192.78019    192.89245    4.0130243 
   18200        72800    9761.8559   -35507.361    272.88562  0.015150836   -25745.506    1078.4861    2.9650706 -0.010089013 -0.0021815819    2.9650886    192.70019    192.78531    4.2837638 
   18400        73600    9810.1429   -35632.621    274.23545  0.035384164   -25822.478    1155.1649            0            0            0            0    192.62019    192.62055    4.4149882 
   18600        74400    9761.7526   -35594.263    272.88274  0.016759278    -25832.51    1165.4205    1.0521609 -0.0031860913 -0.0010997025    1.0521663    192.54019    192.57065    4.4228861 
   18800        75200    9841.1879   -35628.845    275.10329  -0.00707332   -25787.657    1121.3289   -5.0469459  0.015960037 0.0053948926    -5.046974    192.46019    192.31639    4.3197784 
   19000        76000     9913.129   -35645.837    277.11435 -0.010606088   -25732.708    1066.0798   -3.3791914  0.012726333 0.0037352067   -3.3792174    192.38019    192.28404    4.0866701 
   19200        76800    9911.5871   -35629.989    277.07125  0.031989268   -25718.402    1050.7526   -6.2371641  0.023725213 0.0032605151     -6.23721    192.30019    192.12239    3.7634865 
   19400        77600    9786.7183   -35586.966    273.58063  0.080255501   -25800.248    1130.6693   -6.1731175  0.018534203 0.0042773095   -6.1731468    192.22019    192.04422     3.245049 
   19600        78400    9787.3685   -35585.987    273.59881 -0.046536113   -25798.619    1129.1495   -3.3053066  0.011496158 0.0040055175    -3.305329    192.14019    192.04615     2.869677 
   19800        79200     9924.527   -35697.305    277.43298 -0.013184506   -25772.778    1102.6189   -5.4464699  0.016244064 0.0082088192   -5.4465003    192.06019    191.90498    2.5961771 
   20000        80000    9952.6937   -35577.759    278.22035  0.062567316   -25625.066    954.96284  -0.34677458 0.0011127362 0.00046326821  -0.34677668    191.98019    191.97068    2.4724098 
   20200        80800    9903.8401   -35655.628    276.85469 -0.016325269   -25751.788    1082.6412   0.17970838 -0.00051403323 -0.00019028732   0.17970922    191.90019    191.90573     2.532546 
   20400        81600    9734.4316   -35643.481      272.119   0.02853591   -25909.049    1238.9147  -0.15854062 0.0004833903 0.00020158999  -0.15854148    191.82019    191.81606    2.4690531 
   20600        82400    9918.6799   -35736.401    277.26952   0.05455658   -25817.721    1147.6859    4.6144149 -0.015706474 -0.0067905767    4.6144467    191.74019    191.87243     2.593874 
   20800        83200    9783.1657   -35678.279    273.48132 -0.090392766   -25895.113    1226.2092    2.1680972 -0.0075609592 -0.0038668423    2.1681138    191.66019    191.72254    2.8389354 
   21000        84000    9863.3991    -35711.53    275.72419 -0.044702194   -25848.131    1178.0464     1.874918 -0.0065261899 -0.0022725763    1.8749307    191.58019    191.63416    3.0042702 
   21200        84800    9814.6318   -35670.848    274.36094   0.08333107   -25856.216    1186.2149    1.7599062 -0.0057984274 -0.0023773047    1.7599174    191.50019    191.55087    3.0603151 
   21400        85600    9859.5662   -35536.807    275.61704 -0.061170332   -25677.241    1009.0132   0.30273505 -0.0010486486 -0.00030697926   0.30273702    191.42019    191.42924    3.0706665 
   21600        86400    9955.0762   -35576.524    278.28696 -0.026045826   -25621.448    956.96583    2.2646464 -0.0094790387 -0.002578127    2.2646677    191.34019     191.4053      3.28671 
   21800        87200    9933.4138    -35655.39     277.6814 -0.048002374   -25721.976     1056.026    1.4225913 -0.0051232248 -0.0018056496    1.4226017    191.26019    191.30124    3.4410117 
   22000        88000    9906.6868   -35739.014    276.93426  0.014823441   -25832.328    1162.1571    4.5606726 -0.020877907 -0.0069251258    4.5607257    191.18019     191.3109    3.6983584 
   22200        88800     9862.158    -35649.24     275.6895  0.098530623   -25787.082    1113.8622     6.869245 -0.032245889 -0.010168289    6.8693282    191.10019    191.29686    4.2040081 
   22400        89600    9821.3467   -35555.491    274.54864  0.046809172   -25734.145    1063.5072    4.2181651 -0.022437352 -0.0048792912    4.2182276    191.02019    191.14111    4.5920177 
   22600        90400    9783.7471   -35624.547    273.49758  -0.12184867     -25840.8    1175.1994  -0.42204964 0.0023483433 0.00051398149  -0.42205649    190.94019    190.92853    4.6786662 
   22800        91200    9813.2258   -35673.039    274.32163  -0.14319199   -25859.813    1194.8006   -2.0546659  0.010869477 0.0034903164   -2.0546976    190.86019    190.80189    4.5259315 
   23000        92000    9791.3017   -35726.868    273.70876 -0.044630755   -25935.566    1266.9732   -1.3527058 0.0067732828 0.0014622207   -1.3527235    190.78019    190.74194    4.2932042 
   23200        92800      9853.82   -35692.153    275.45641 -0.064726291   -25838.333    1167.2921    0.7751128 -0.0037676247 -0.0011384135   0.77512279    190.70019    190.72274    4.4256601 
   23400        93600    9775.2165   -35742.781    273.25911 -0.021978893   -25967.565    1295.9726   -3.9448744  0.016206623 0.0053717735   -3.9449114    190.62019    190.50788    4.2634333 
   23600        94400    9828.7409   -35813.751    274.75535 -0.082986644    -25985.01    1314.4588   -1.0659201 0.0046490088 0.0014119241   -1.0659311    190.54019    190.51014    4.1598977 
   23800        95200    9826.8209   -35736.542    274.70167 -0.066729661   -25909.721    1240.3798     1.509156 -0.0070837743 -0.0015945577    1.5091734    190.46019    190.50371    4.3457185 
   24000        96000    9917.9173   -35743.608    277.24821 -0.053096268   -25825.691    1157.5414    3.3634995 -0.010755704 -0.0037312242    3.3635187    190.38019    190.47669    4.5095034 
   24200        96800    9836.0628   -35749.115    274.96002 -0.014102596   -25913.052    1244.6001   -2.8540778  0.010514595 0.0029660367   -2.8540987    190.30019    190.21905    4.3382245 
   24400        97600    9754.3564   -35689.049    272.67598  0.062030917   -25934.692    1266.2388    -2.305576 0.0079377572 0.0022678329   -2.3055907    190.22019    190.15472    4.0627261 
   24600        98400    9910.3145   -35581.979    277.03567 -0.030328939   -25671.664    1001.7052   -6.1061933  0.017971056 0.0009980703   -6.1062199    190.14019    189.96613    3.7597958 
   24800        99200    9842.8864   -35679.183    275.15077  0.054698476   -25836.296    1165.8605   -6.6660334  0.027973375 -0.0028105692   -6.6660927    190.06019    189.87013    3.1132636 
   25000       100000    9685.5957   -35721.597    270.75382  0.017213401   -26036.001    1366.2209   -3.0119858  0.012374589 -0.00039842113   -3.0120113    189.98019    189.89453    2.7650292 
   25200       100800    9800.9481    -35734.65    273.97842 -0.015150619   -25933.702    1265.6643  -0.23926615 0.00078372798 5.8160272e-05  -0.23926744    189.90019    189.89376    2.6195157 
   25400       101600    9993.2083   -35607.614    279.35291   0.09019143   -25614.406    944.80543   0.32316655 -0.0010944325 -0.00024456498    0.3231685    189.82019    189.82983     2.701755 
   25600       102400    9837.5938   -35908.048    275.00282  0.058874062   -26070.454    1398.4814     2.636034 -0.010928469 -0.0018066356    2.6360573    189.74019    189.81591    2.8413615 
   25800       103200    9947.3103   -35816.743    278.06987  0.097378395   -25869.432    1197.3529    7.7278825 -0.026306514 -0.0053508606    7.7279292    189.66019    189.88139     3.135968 
   26000       104000    9833.0168    -35735.25    274.87488  0.049517208   -25902.233    1230.9797    8.1825729 -0.032347016 -0.0039362677    8.1826378    189.58019    189.81438     3.782123 
   26200       104800    9909.8078   -35962.649    277.02151  0.036227508   -26052.842    1382.5951    1.8777126 -0.0073194875 0.00062867032     1.877727    189.50019    189.55424    4.0832722 
   26400       105600    9955.0153   -35926.129    278.28526   0.03408572   -25971.113    1300.3608  -0.83348681  0.003312796 -0.00051882334  -0.83349355    189.42019    189.39678    3.9688002 
   26600       106400    9831.3012   -35780.058    274.82692 0.0078196406   -25948.757    1276.0566 -0.085025421 0.00038043495 -4.4837754e-05 -0.085026284    189.34019    189.33816    4.0151165 
   26800       107200    9780.1506   -35957.407    273.39704  0.045417763   -26177.256     1505.051   -2.9548128  0.013316844 -0.00048012411   -2.9548429    189.26019    189.17617    3.8694058 
   27000       108000    9898.7837   -35859.413    276.71334  0.019510049   -25960.629    1288.8534   -1.0164094 0.0047957041 -0.00020171678   -1.0164208    189.18019    189.15155    3.7188105 
   27200       108800    9731.9305   -35777.872    272.04908 -0.075699653   -26045.941    1375.1572   0.80662691 -0.0038386545 0.00018727121   0.80663607    189.10019    189.12364    3.7814699 
   27400       109600    9800.4146   -35820.724     273.9635  -0.06095552    -26020.31    1350.0593   -2.3532566  0.011446752 -0.0013398366   -2.3532848    189.02019    188.95335    3.7766832 
   27600       110400    9851.0381   -35881.194    275.37865  0.047450815   -26030.155    1357.5402   -3.7075465  0.017085864 0.00056036686   -3.7075859    188.94019    188.83466    3.5282651 
   27800       111200    9910.3771   -35897.698    277.03743   0.14075835   -25987.321    1311.9174   -4.8255655    0.0241086 0.00098889624   -4.8256259    188.86019    188.72272    3.0790282 
   28000       112000    9911.9006   -35944.346    277.08001   0.12899956   -26032.445    1357.5558   0.28990584 -0.0013337197 1.2662579e-05   0.28990891    188.78019    188.78887    2.8933129 
   28200       112800    9878.6312   -35847.005    276.14999   0.05172421   -25968.373    1295.8878    1.4887293 -0.0060893969 -0.0014361059    1.4887424    188.70019    188.74313    2.9281529 
   28400       113600    9810.6474   -35862.903    274.24955  0.021958286   -26052.256    1383.1915   -1.5622075 0.0068973549 0.0012535955   -1.5622232    188.62019    188.57596    2.8804949 
   28600       114400    9883.7832   -35912.544    276.29401  -0.02048237   -26028.761    1359.4964   -1.7189903 0.0067595695 0.00085579847   -1.7190038    188.54019    188.49148    2.6326508 
   28800       115200     9787.442   -35834.795    273.60086 -0.035882927   -26047.353    1373.9091   -3.0191121  0.011743528 0.0014517387   -3.0191353    188.46019    188.37433     2.428837 
   29000       116000     9894.548   -35941.427    276.59493   0.11541033   -26046.879    1370.0525    5.1505315 -0.021551251 -0.0048150134    5.1505789    188.38019    188.52775    2.5601806 
   29200       116800    9805.8486   -36005.911    274.11541  0.048448271   -26200.062     1524.536    2.1885798 -0.008743573 -0.0015091405    2.1885978    188.30019    188.36312    2.8915824 
   29400       117600    9920.3683   -35965.953    277.31672  -0.10654489   -26045.584    1371.9133    4.6149152 -0.020539323 -0.0036954503    4.6149624    188.22019    188.35245     3.083287 
   29600       118400    9638.6644   -35986.737    269.44189 -0.035793169   -26348.072    1676.8524    5.0193789 -0.023325983 -0.0032889996    5.0194342    188.14019      188.284    3.6052063 
   29800       119200      9818.43   -35881.833    274.46711  0.032427815   -26063.403    1393.5517    1.1810722 -0.0052537139 -0.00073432385    1.1810842    188.06019    188.09434    3.9796703 
   30000       120000    9735.6694   -35962.564     272.1536  -0.10321121   -26226.895     1555.482    1.4494519 -0.0070820673 -0.00046719677    1.4494693    187.98019    188.02201     4.030428 
   30200       120800    9797.1403   -35986.098    273.87197  0.081172222   -26188.957    1516.4781  -0.31272576 0.0015066645 -3.9140855e-05   -0.3127294    187.90019    187.89166    4.2004725 
   30400       121600    9823.7725   -35869.207    274.61646 -0.00045128338   -26045.434    1372.5186   -1.6632609 0.0098453352 0.0004202587   -1.6632901    187.82019    187.77307    4.1386101 
   30600       122400    9793.1417   -35788.731    273.76019  -0.03175733    -25995.59    1324.2482   -4.7476773  0.026720664 0.0027688941   -4.7477533    187.74019    187.60494    3.9043179 
   30800       123200    9857.3673   -35945.787    275.55557 -0.042637346   -26088.419    1417.2241   -7.0833627  0.042171064 0.0037002757   -7.0834892    187.66019    187.45821    3.3298793 
   31000       124000    9838.2667   -35895.523    275.02163  0.026517568   -26057.257    1385.1474   -1.5145257 0.0094261121 0.00065460909   -1.5145551    187.58019    187.53732    3.0196416 
   31200       124800     9906.713   -36020.632      276.935  0.014130655   -26113.919    1440.0815   0.75889731 -0.0042866836 -0.0010144257    0.7589101    187.50019    187.52227    2.9002181 
   31400       125600    9801.4636   -35986.172    273.99283 -0.027767217   -26184.708    1509.0172    4.7906114 -0.029208387 -0.0041955603    4.7907022    187.42019    187.55747    3.0650615 
   31600       126400    9797.7582    -36043.51    273.88925   0.05203296   -26245.751    1570.8782     1.348675 -0.007878144 -0.00092336665    1.3486983    187.34019    187.37913    3.2765575 
   31800       127200    9748.1609   -35997.426    272.50279 -0.073521588   -26249.265    1575.5083   0.11430473 -0.00064367533 -0.00010953066    0.1143066    187.26019    187.26386    3.3424046 
   32000       128000    9914.8666   -35920.519    277.16293  0.014154166   -26005.653    1331.7737      2.15346 -0.011550644 5.5566294e-05     2.153491    187.18019    187.24212    3.4633734 
   32200       128800    9933.5264   -35971.159    277.68455  0.011012147   -26037.632    1365.6674   0.89976342 -0.0053968228 0.00043819682   0.89977971    187.10019     187.1263    3.7307681 
   32400       129600     9915.127   -36047.782    277.17021  0.016184222   -26132.655    1459.1304  -0.42755565  0.002325427 -2.9249782e-05  -0.42756197    187.02019    187.00838    3.7537085 
   32600       130400    9727.0075    -35987.93    271.91146  0.041367298   -26260.922    1588.0532            0            0            0            0    186.94019    186.93964    3.7245897 
   32800       131200    9732.7114   -35934.452    272.07091   0.11359033   -26201.741    1527.7078    3.3740718 -0.017264148 0.00045906548     3.374116    186.86019    186.95699    3.8300105 
   33000       132000    9747.4806     -35976.6    272.48377 -0.043087422   -26229.119    1555.5057    3.6957104 -0.018850479 0.0024601772    3.6957593    186.78019    186.88618    3.9626518 
   33200       132800    9742.6542   -36014.529    272.34885 0.0022952944   -26271.875    1599.0406    1.7201209 -0.0085968499 0.00078970044    1.7201426    186.70019    186.74974    4.2068527 
   33400       133600    9798.7843   -35995.529    273.91793   0.04847233   -26196.745    1524.6174   -1.4651902 0.0065427562 -0.00040730823   -1.4652049    186.62019    186.57873    4.1530926 
   33600       134400    9819.4771   -36079.314    274.49638 -0.072479383   -26259.837    1587.8605   -2.6079479   0.01270193 -0.0012738702   -2.6079792    186.54019    186.46608     4.056209 
   33800       135200    9841.8021   -35914.919    275.12046  0.003286184   -26073.116    1400.0804   -6.0586991  0.033637319 -0.0059548815   -6.0587954    186.46019    186.28748    3.8471495 
   34000       136000    9828.8161   -36045.387    274.75745  0.011490282   -26216.571    1544.4209     2.270636 -0.013882928 0.0018324407    2.2706792    186.38019    186.44547    3.7286544 
   34200       136800    9792.1227   -36055.797    273.73171 -0.013906586   -26263.674    1590.6475    7.5337374 -0.045262784 -0.0018628457    7.5338736    186.30019    186.51585    4.0950448 
   34400       137600      9891.04   -35972.357    276.49687  0.084414008   -26081.317    1408.0364    2.1341368 -0.014166452 -0.0017628882    2.1341845    186.22019    186.28157    4.4921421 
   34600       138400    9728.3587    -36034.37    271.94923  0.016172189   -26306.011    1633.3764  -0.98289406 0.0072790384 0.00029942653  -0.98292106    186.14019    186.11251    4.3695645 
   34800       139200    9980.2302   -36188.935    278.99012  -0.13869912   -26208.705    1535.8499    2.8691282 -0.020639993 -0.00069329207    2.8692025    186.06019    186.14257    4.3299991 
   35000       140000    9969.2838   -36035.465    278.68412    0.1091259   -26066.181    1390.8681   -1.0617281 0.0075319897 0.0006190966    -1.061755    185.98019    185.95026    4.3408898 
   35200       140800    9812.2686   -36161.721    274.29487  0.078961641   -26349.453    1673.2072   -3.1148014  0.021858935 0.00022078012   -3.1148781    185.90019     185.8116    4.1584804 
   35400       141600    9796.8951   -36157.205    273.86512 -0.0036682113    -26360.31    1684.0821   -4.8643076  0.033124648 0.0021926775   -4.8644209    185.82019    185.68161    3.7901498 
   35600       142400    9794.7768    -36109.38     273.8059 -0.092304733   -26314.603    1639.4777   -6.2671747  0.044936308 0.0062100848   -6.2673388    185.74019    185.56152    3.3258791 
   35800       143200      9921.67   -36050.172    277.35311 -0.027107931   -26128.502    1452.6023   -7.0773035   0.05135416 0.0088433047   -7.0774953    185.66019    185.45838    2.7667301 
   36000       144000    9784.8986   -36133.784    273.52977 0.0087966018   -26348.885     1670.737   -5.4393977  0.035917084 0.0054256165    -5.439519    185.58019    185.42518    2.4931926 
   36200       144800    9815.7482    -36184.69    274.39214  0.068364272   -26368.941    1689.5339   -7.4854321  0.051918247 0.0091453055   -7.4856178    185.50019    185.28672    2.1238758 
   36400       145600    9900.3078   -36062.953    276.75595  0.008544081   -26162.645    1485.0793   -6.9943616  0.047556437 0.0046604152   -6.9945248    185.42019    185.22075    1.5011256 
   36600       146400    9798.5337   -36126.894    273.91093  0.022316421   -26328.361    1652.6495  -0.84415789 0.0057709335 0.00052420601  -0.84417778    185.34019    185.31647    1.1332906 
   36800       147200    9796.3329   -36106.216     273.8494 -0.0014909049   -26309.883    1633.5364   -1.1519224 0.0084290818 0.0002491031   -1.1519532    185.26019    185.22768    1.0845696 
   37000       148000    9884.7566   -35991.826    276.32122  0.070914613    -26107.07    1430.4472    0.4399859 -0.0030353528 -0.00013241176   0.43999639    185.18019    185.19316    1.0477645 
   37200       148800    9831.8053    -36162.04    274.84101   0.10554251   -26330.235    1652.5103    3.8526634 -0.027369889 0.0014674726    3.8527609    185.10019    185.21067    1.1779362 
   37400       149600    9763.1639   -36087.673    272.92219  0.046341379   -26324.509    1648.4516    4.9824732 -0.036896404 0.0021919519    4.9826103    185.02019    185.16295    1.4770838 
   37600       150400    9814.1288   -35967.442    274.34687 0.0091114707   -26153.313    1476.7634    10.348817 -0.073044831 0.00053753181    10.349074    184.94019    185.23628    2.0501911 
   37800       151200    9945.5117   -36115.095    278.01959  0.060034153   -26169.583    1490.3988    14.800579  -0.11698674  0.001878954    14.801042    184.86019    185.28348     3.013809 
   38000       152000    9834.5384   -36140.295    274.91741  0.037007041   -26305.757    1629.2243    11.206807 -0.087291162 -0.0021983885    11.207147    184.78019     185.1008    4.0232776 
   38200       152800    9862.8976   -36171.899    275.71017 -0.021661997   -26309.001    1634.4356    11.898138 -0.086480543 -0.0026866627    11.898452    184.70019    185.04055    4.8588717 
   38400       153600    9894.5878   -36047.153    276.59605  0.030082147   -26152.565    1479.4871    9.0664411  -0.06333923 -0.0077803382    9.0666657    184.62019    184.87964    5.6829187 
   38600       154400    9835.9693   -36174.811    274.95741  0.056954738   -26338.842    1667.0829    4.5371473 -0.031635565 -0.0041109431    4.5372594    184.54019    184.67023    6.1799853 
   38800       155200     9838.485   -36185.138    275.02773  -0.06015293   -26346.653    1673.8344    2.7249889 -0.020332073 -0.0010153043     2.725065    184.46019    184.53845    6.4574864 
   39000       156000     9748.412   -36132.578    272.50981  0.060945311   -26384.166    1709.7212    2.7574203 -0.021352109 -0.0018903593    2.7575036    184.38019    184.45938    6.7710061 
   39200       156800    9837.0578   -36192.593    274.98784   0.11324171   -26355.535    1682.1154   -2.8116224  0.021680408 0.00019739584    -2.811706    184.30019    184.22026      6.73014 
   39400       157600     9794.999    -36275.73    273.81211   0.11282637   -26480.731    1808.1943   0.53852536 -0.0042803986 -0.00052617627   0.53854262    184.22019    184.23598    6.5668815 
   39600       158400    9770.7568   -36218.142    273.13444  -0.12033158   -26447.386    1775.6012  -0.44543932 0.0036290438 0.00071786118  -0.44545469    184.14019    184.12786    6.6813488 
   39800       159200    9838.2205   -36182.746    275.02034  0.057596998   -26344.526    1671.8232  -0.93526603 0.0074900829 0.0014910139  -0.93529721    184.06019    184.03387    6.5317519 
   40000       160000    9764.6296   -36313.687    272.96316 -0.022785962   -26549.057    1874.4162   -1.3656118  0.010688839 0.0016770829   -1.3656547    183.98019    183.94157    6.4617711 
   40200       160800    9705.7649   -36214.918    271.31764  0.025428711   -26509.153    1834.0636   -1.2422562 0.0097465256 0.0018454006   -1.2422958    183.90019     183.8651    6.3747671 
   40400       161600    9848.7591   -36259.886    275.31494  0.055359432   -26411.127    1737.3235    -2.249365  0.017312448 0.0028392459   -2.2494334    183.82019    183.75632    6.2230506 
   40600       162400    10019.376    -36313.93    280.08442  -0.16359862   -26294.554    1620.8308   -5.9033266  0.044855418 0.0087712308   -5.9035036    183.74019    183.57192      5.85507 
   40800       163200    9792.8807   -36217.315     273.7529 -0.050359212   -26424.434    1750.5479   -3.1968892  0.023280254 0.0056366826   -3.1969789    183.66019    183.56925    5.4447086 
   41000       164000    9750.7132   -36244.316    272.57414  0.013768521   -26493.603    1817.7321   -5.1846315  0.038745681  0.012878655   -5.1847923    183.58019    183.43245    5.0243702 
   41200       164800    9850.9451   -36245.697    275.37605    0.1450881   -26394.751    1715.9833    -8.911466  0.072324294  0.011440554   -8.9117668    183.50019    183.24597    4.4192716 
   41400       165600    9663.2434   -36282.729    270.12898 -0.057015934   -26619.486    1940.5965   -5.3785141  0.041512053  0.012311347   -5.3786884    183.42019    183.26691    3.8675573 
   41600       166400    9912.0356   -36285.658    277.08379 -0.081656921   -26373.622    1696.0332   -6.5472519  0.051428493  0.016929554   -6.5474758    183.34019    183.15352    3.4054325 
   41800       167200    9823.2118   -36374.458    274.60078 -0.026719082   -26551.246    1872.4895   -5.9646663  0.044215006  0.011716127   -5.9648417    183.26019    183.09017     2.974555 
   42000       168000    9791.4339   -36316.206    273.71245 -0.018381823   -26524.772    1844.0021   -6.4981902  0.050618949   0.01649306   -6.4984083    183.18019    182.99492    2.4631921 
   42200       168800    9875.8002   -36286.805    276.07085  0.080721194   -26411.004    1730.0856   -7.2442325  0.054964431  0.018910293   -7.2444657    183.10019    182.89361    2.0235245 
   42400       169600    9775.4274   -36391.596    273.26501  -0.16292291   -26616.168    1936.7583    -4.838156   0.03889983  0.011969109   -4.8383271    183.02019    182.88235    1.6358086 
   42600       170400    9851.9877   -36396.219    275.40519 -0.079120965   -26544.231    1864.1246    -3.678896  0.028679861 0.0084867167   -3.6790175    182.94019    182.83548    1.2983357 
   42800       171200    9886.9543   -36446.441    276.38266 -0.017673741   -26559.487    1878.6537   -0.5664148 0.0043391278 0.0011312049  -0.56643255    182.86019    182.84441    1.0459619 
   43000       172000    9933.0589   -36448.342    277.67148 -0.028467617   -26515.283    1834.6404   0.97762137 -0.0076223267 -0.0014512396   0.97765217    182.78019    182.80852    1.1024141 
   43200       172800    9863.9573   -36374.157    275.73979  0.026071196     -26510.2    1830.6034    1.7770467 -0.013152273 -0.0023648809    1.7770969    182.70019    182.75137    1.0589992 
   43400       173600    9734.2985   -36368.563    272.11528  0.025882077   -26634.264    1953.5257    2.0914802 -0.015541734 -0.0030403864    2.0915402    182.62019    182.68035     1.181292 
   43600       174400    9776.4182   -36521.832     273.2927 -0.012961931   -26745.414    2064.1602    3.9136624 -0.031122047 -0.0048161149    3.9137891    182.54019    182.65241    1.4432162 
   43800       175200    9804.4532       -36466     274.0764   -0.1335041   -26661.547    1980.6714    1.3731995 -0.011833431 -0.0015203239    1.3732513    182.46019    182.49983     1.657896 
   44000       176000    9820.6631   -36639.076    274.52953  0.080819677   -26818.413    2136.3257     7.405804 -0.058327111  -0.01252915    7.4060443    182.38019    182.59219    2.1116301 
   44200       176800    9648.1795   -36446.509    269.70788   0.00767949    -26798.33    2117.8596    4.4855353  -0.03433641 -0.0069395762    4.4856721    182.30019    182.42875    2.4806009 
   44400       177600    9796.4152   -36492.689     273.8517  0.029030826   -26696.274    2016.8202    9.5511803 -0.064376278 -0.025936735    9.5514325    182.22019    182.49349    3.0746012 
   44600       178400     9781.874   -36317.942    273.44521  0.043811289   -26536.068    1859.3613    5.2032265 -0.034684951 -0.016933946    5.2033697    182.14019    182.28926      3.69724 
   44800       179200    9802.2703    -36380.81    274.01538  0.005481357    -26578.54    1903.9484    3.9678467 -0.030244744 -0.0076754117    3.9679693    182.06019    182.17396    4.1311538 
   45000       180000    9919.4239   -36417.485    277.29032  0.086002691   -26498.061    1821.7785   0.89995902 -0.0061883895 -0.0018583446   0.89998221    181.98019    182.00631    4.3898654 
   45200       180800    9776.0951   -36534.182    273.28367  0.062892706   -26758.087    2079.8574    3.2263176 -0.022055128 -0.0095216884     3.226407    181.90019    181.99277    4.6081258 
   45400       181600    9682.3827   -36385.276    270.66401  0.030800693   -26702.894    2023.9534    6.9766715  -0.04890093 -0.019809017     6.976871    181.82019    182.01993     5.001812 
   45600       182400    9833.6478   -36314.246    274.89251 -0.033991738   -26480.598    1804.2424    6.3884334 -0.046872316 -0.015927131    6.3886252    181.74019    181.92312    5.5415448 
   45800       183200    9921.3117   -36344.401    277.34309 -0.090419584    -26423.09    1748.7923    1.2110496 -0.008245622 -0.0030410358    1.2110815    181.66019    181.69519    5.8585398 
   46000       184000    9701.0327   -36314.691    271.18535 -0.025749051   -26613.658    1940.2274     1.789415 -0.012470192 -0.0042001407    1.7894634    181.58019    181.63172    5.9348216 
   46200       184800    9791.4096   -36374.909    273.71178 -0.036259104   -26583.499    1907.9911   -1.5479104  0.010920042 0.0037041423   -1.5479533    181.50019    181.45636    5.9446858 
   46400       185600     9842.847   -36265.978    275.14967  0.032115798   -26423.131    1746.2909   -6.0067186  0.040886505  0.014960872   -6.0068764    181.42019    181.24897    5.6374707 
   46600       186400    9818.4211   -36442.513    274.46686  0.079136171   -26624.092    1946.7432    -3.304985  0.021074874 0.0059111881   -3.3050575    181.34019    181.24616    5.1896011 
   46800       187200    9888.3386   -36420.879    276.42135 -0.0052695726    -26532.54    1856.5642   -4.7986802  0.033486229 0.0064517167   -4.7988014    181.26019    181.12348    4.8550603 
   47000       188000    9806.0063   -36452.784    274.11981  -0.15531599   -26646.778    1970.7362   -2.0221432  0.016255253 0.0033412122   -2.0222113    181.18019    181.12281    4.4943931 
   47200       188800    9893.3306   -36392.012     276.5609 0.0086227446   -26498.681    1822.7871   -4.2539613  0.033575039 0.0082186041   -4.2541018    181.10019    180.97905    4.2853106 
   47400       189600    9961.5764   -36331.484    278.46866  0.027019887   -26369.907     1691.099   -5.3332963   0.03849835  0.008721685   -5.3334423    181.02019    180.86821    3.8919658 
   47600       190400    9795.3936   -36483.714    273.82315 -0.046256506   -26688.321    2007.4084    -7.469721  0.056080513 0.0099381721   -7.4699381    180.94019    180.72716    3.4918155 
   47800       191200    9808.1722   -36443.669    274.18036 0.0049634034   -26635.497    1952.5344   -4.3521485  0.028311595 0.0077565867   -4.3522474    180.86019    180.73624    3.0872275 
   48000       192000    9776.3456   -36667.129    273.29067   0.10621714   -26890.783    2207.8666   -4.8412976  0.028859536 0.0079044873   -4.8413901    180.78019    180.64227    2.7361357 
   48200       192800     9727.344   -36452.912    271.92087 -0.091787277   -26725.568    2043.8401   -2.8343262  0.017631167 0.0045611429   -2.8343847    180.70019    180.61961    2.2489368 
   48400       193600    9792.2242   -36493.413    273.73455 -0.078090888   -26701.189    2021.4521 -0.062380294 0.00037257448 6.5315787e-05 -0.062381441    180.62019    180.61881    2.0865301 
   48600       194400    9869.9541   -36401.432    275.90743 -0.019856727   -26531.478    1852.2441            0            0            0            0    180.54019     180.5415     2.103612 
   48800       195200    9741.7528    -36268.41    272.32365  0.058041832   -26526.657    1847.5073   -1.2620896  0.009052661 0.0012735779   -1.2621227    180.46019    180.42453    1.9802915 
   49000       196000    9950.2232   -36375.465    278.15129   0.03416334   -26425.242     1745.923    2.3869764 -0.016870691 -0.0019470544    2.3870368    180.38019    180.44879    2.1454811 
   49200       196800    9953.2023    -36424.14    278.23457  -0.10586873   -26470.937    1791.0816   -2.0252304   0.01576258 0.0017374639   -2.0252924    180.30019    180.24273    2.2336498 
   49400       197600    9947.5413   -36461.731    278.07632 -0.034857615    -26514.19    1835.4739    2.2075913 -0.017032774 -0.001994967    2.2076579    180.22019    180.28367     2.368575 
   49600       198400    9816.6427   -36506.672    274.41715 -0.0064707883    -26690.03    2010.2456    2.1962317 -0.016033135 -0.0030287801    2.1962923    180.14019    180.20334    2.5678451 
   49800       199200     9886.199   -36438.312    276.36154  0.044286983   -26552.113    1873.3248    2.6163147 -0.020130903 -0.0032513435    2.6163942    180.06019    180.13535    2.7101664 
   50000       200000    9867.1909   -36203.097    275.83019  0.035857992   -26335.907    1658.3244    7.2435216 -0.057657448  -0.01347549    7.2437636    179.98019    180.18756    3.0770069 
   50200       200800    9680.7586   -36319.272    270.61861 -0.098936155   -26638.514    1961.1694     6.032466 -0.050184122 -0.0086109039    6.0326808    179.90019    180.07295    3.6127876 
   50400       201600    9903.2203   -36430.939    276.83736 -0.070856797   -26527.719    1848.2665    7.3571877 -0.050535065 -0.017267224    7.3573815    179.82019     180.0308    4.0960481 
   50600       202400    9734.2708   -36432.705     272.1145   0.14077671   -26698.434    2016.4736    6.9014956 -0.048996566 -0.017203113     6.901691    179.74019    179.93778    4.7195296 
   50800       203200    9710.5287   -36557.337    271.45081 0.0076631159   -26846.809     2168.403    1.3102011 -0.0096783113 -0.0026417161    1.3102395    179.66019    179.69803     5.063436 
   51000       204000    9857.5822   -36284.077    275.56158  -0.12295292   -26426.495    1753.4742    2.1016225 -0.014588781 -0.0029282599    2.1016752    179.58019    179.64064    5.2225355 
   51200       204800    9769.8997    -36320.41    273.11048 -0.091498472   -26550.511    1879.6381    1.2537228 -0.0088647128 -0.00087243176    1.2537544    179.50019    179.53641    5.4004814 
   51400       205600    9817.9677   -36489.364    274.45419 -0.024494619   -26671.396    1997.6352   -4.3808976  0.036191137    0.0024446   -4.3810478    179.42019    179.29542    5.3661131 
   51600       206400    9807.9279   -36505.627    274.17353  0.031774021   -26697.699    2018.3453   -3.6396571  0.031731851 0.0016730708   -3.6397958    179.34019     179.2366    5.1283075 
   51800       207200     9906.458   -36527.399    276.92787  0.046383962   -26620.941    1939.7752   -3.7028331  0.032491335 0.0036008216   -3.7029774    179.26019    179.15479    4.9294597 
   52000       208000    9817.1456    -36493.11    274.43121  0.098296337   -26675.964    1996.1058  -0.82126723 0.0071041398  0.001038778  -0.82129861    179.18019    179.15713    4.7779219 
   52200       208800    9734.3084   -36233.074    272.11555  -0.10127649   -26498.766    1824.4047     1.709796 -0.015341216 -0.0024067105    1.7098665    179.10019    179.14944    4.7616549 
   52400       209600    9682.2211   -36247.171    270.65949  -0.12953454    -26564.95    1893.8733   -1.5797423  0.013940471  0.002562697   -1.5798059    179.02019    178.97545    4.7506929 
   52600       210400    9722.6171   -36346.198    271.78873  -0.06447191   -26623.581    1949.1104    2.6258129 -0.022284732 -0.0045622486    2.6259114    178.94019    179.01562    4.7860971 
   52800       211200    9859.5782   -36518.039    275.61738  0.078202969   -26658.461    1978.7963   -3.7269126  0.035564753  0.004754231   -3.7270854    178.86019     178.7541    4.7542406 
   53000       212000    9843.9454    -36602.27    275.18037    0.1233206   -26758.325    2075.7267    -1.694106  0.015093798 0.0014750941   -1.6941739    178.78019    178.73219    4.5497714 
   53200       212800    9807.5111    -36453.72    274.16188  0.047364372   -26646.209       1967.1   -2.0446217  0.019766462 0.0030045923   -2.0447195    178.70019    178.64217    4.4802936 
   53400       213600    9875.1269   -36344.388    276.05203  -0.10140105   -26469.262     1793.869   -1.2978238  0.012817289 0.00067529989   -1.2978873    178.62019    178.58351    4.2162964 
   53600       214400    9783.7357   -36292.375    273.49726 -0.091647166   -26508.639    1834.2859   -1.6635957  0.017692336 0.0021452765   -1.6636911    178.54019    178.49306    4.0425638 
   53800       215200    9843.4493   -36412.292    275.16651  0.031620463   -26568.842     1891.001    1.7166908 -0.018512732 -0.0023089697    1.7167922    178.46019    178.50964    3.9988167 
   54000       216000    9948.1013   -36456.033    278.09198   0.13495078   -26507.932    1827.7172    5.8684923 -0.058710033 -0.0070206228    5.8687902    178.38019    178.54827     4.371164 
   54200       216800     9889.623   -36500.733    276.45726  0.033464315    -26611.11    1931.9128     3.234911 -0.032451691 -0.0059536304    3.2350793    178.30019    178.39302    4.6825813 
   54400       217600       9765.6   -36352.505    272.99029 -0.083154026   -26586.905    1911.6024    1.8956553 -0.018169659 -0.001967617    1.8957434    178.22019    178.27476    4.9382503 
   54600       218400    9696.2251   -36436.497    271.05096 -0.084925828   -26740.272    2064.3825  -0.99699802 0.0099632926 0.00039657296  -0.99704788    178.14019     178.1121     4.843674 
   54800       219200     9824.529   -36518.865    274.63761   0.11368238   -26694.336    2015.4163   -1.5158643  0.014273671 0.0010757872   -1.5159319    178.06019    178.01728    4.7868903 
   55000       220000    9809.2551    -36651.68    274.21063  0.070813816   -26842.425     2161.444   -4.6407286  0.042626033 -0.00069775722   -4.6409244    177.98019    177.84799    4.5851051 
   55200       220800    9937.3826   -36486.868    277.79234  0.042002998   -26549.486    1869.7325   -8.3892472  0.083081494 0.0066328443   -8.3896612    177.90019    177.66089     3.890875 
   55400       221600    9796.7593   -36498.784    273.86132  -0.10091936   -26702.025    2026.0359   -5.3707539  0.050203453 0.0010277919   -5.3709886    177.82019    177.66713    3.4177759 
   55600       222400    9761.8486    -36393.16    272.88542 -0.039231743   -26631.311    1954.7709   -6.8672821   0.06909452  0.001319341   -6.8676298    177.74019    177.54437    2.8913575 
   55800       223200    9854.0555   -36422.521    275.46299  0.094491541   -26568.466    1890.1535   -2.7381252  0.025100102 0.0025478168   -2.7382414    177.66019    177.58236    2.4677796 
   56000       224000    9919.8631   -36471.484     277.3026  0.029864805   -26551.621    1870.7943   -2.3649079  0.022626368 0.0016788597   -2.3650167    177.58019    177.51302     2.348341 
   56200       224800    9877.9961    -36486.28    276.13224 -0.027083895   -26608.284    1927.0043  -0.94426239 0.0085430287 0.00054874082  -0.94430119    177.50019    177.47361    2.1220848 
   56400       225600    9851.6988   -36488.304    275.39712 -0.020299421   -26636.605    1955.7172    1.2658063 -0.010563779 -0.0013695873    1.2658511    177.42019    177.45676     2.132735 
   56600       226400    9963.4397   -36402.638    278.52075   0.09487074   -26439.199    1758.4158    5.2479757 -0.048258575 -0.0082830753    5.2482041    177.34019    177.49054    2.3189487 
   56800       227200    9849.0717   -36406.952    275.32368  0.063283573    -26557.88    1877.7141     5.003446 -0.046230484 -0.0023949202    5.0036601    177.26019    177.40355    2.6640686 
   57000       228000    9790.7324   -36470.012    273.69284  0.023217509    -26679.28    1999.8896    6.1386745 -0.057000096 -0.0031802286      6.13894    177.18019    177.35599    3.0919675 
   57200       228800    9998.7074   -36413.364    279.50663  0.011948755   -26414.656    1735.2414     7.102252 -0.066228675 -0.0048839372    7.1025624    177.10019    177.30352     3.617504 
   57400       229600    9888.0713   -36687.011    276.41388 -0.078069844    -26798.94    2119.5894    4.6369262 -0.046307668 -0.0024634681     4.637158    177.02019    177.15308    4.0122309 
   57600       230400    9732.9146   -36587.312    272.07659  0.037023859   -26854.397    2173.6505   0.66000421 -0.0064319495 -0.0005219026   0.66003576    176.94019    176.95945    4.2478411 
   57800       231200    9996.6174   -36588.667    279.44821  0.089306985    -26592.05    1911.8556    -6.442887  0.068050149 0.0072294149   -6.4432504    176.86019     176.6765    4.0788358 
   58000       232000    9771.9769   -36445.953    273.16855  -0.11795332   -26673.976    1995.8834  -0.89198458 0.0092352546 0.00096167228  -0.89203291    176.78019     176.7551    3.8474432 
   58200       232800    9894.6798   -36605.038    276.59862 -0.081657268   -26710.358     2032.309   -2.4938648  0.027398456 0.0028393182   -2.4940169    176.70019    176.62933    3.8010111 
   58400       233600     9805.437   -36582.308     274.1039 -0.018937005   -26776.871    2099.0994   0.27134696 -0.0029033209 -0.00023147408   0.27136259    176.62019    176.62834    3.7623269 
   58600       234400    9959.1034   -36604.085    278.39953  -0.01824081   -26644.982    1965.4693  0.056705839 -0.00059792781 -9.669146e-05  0.056709074    176.54019    176.54221    3.7191608 
   58800       235200    9910.4266    -36534.13    277.03881  0.060586726   -26623.704    1943.3515   0.74821417 -0.0075430899 -0.00085464741   0.74825268    176.46019    176.48197    3.7483155 
   59000       236000    9817.2631   -36541.898    274.43449  0.014694409   -26724.635    2045.3561    1.4079755 -0.013361531 -0.0007712128    1.4080392    176.38019    176.42082    3.8173949 
   59200       236800    9984.1591   -36540.441    279.09995   0.14819528   -26556.282    1875.9371   -4.5578304  0.042634771 0.0035747529   -4.5580312    176.30019    176.17036    3.7078861 
   59400       237600    9779.6538   -36438.272    273.38315 -0.054490143   -26658.618    1979.5282   -2.5606315  0.025432867 0.00069360352   -2.5607579    176.22019    176.14743    3.4134409 
   59600       238400    9832.2507   -36530.987    274.85346  -0.10759873   -26698.736    2021.0171   -3.7233387  0.039839769 -0.001526086   -3.7235521    176.14019     176.0342    3.2439289 
   59800       239200    9864.8003   -36519.123    275.76336  0.085274939   -26654.323    1973.4931    -3.376873  0.035254526 -0.0032739368   -3.3770586    176.06019     175.9641    2.9126657 
   60000       240000    9839.8485    -36517.73    275.06585   0.10836392   -26677.882    1997.3141   -2.5698574  0.027065603 -0.0012718723   -2.5700002    175.98019    175.90716     2.727062 
   60200       240800    9763.5434   -36680.742    272.93279  -0.11931781   -26917.198    2237.2764   0.80510159 -0.0082171912 0.0003928855   0.80514362    175.90019     175.9236    2.6402017 
   60400       241600    9820.8058   -36649.466    274.53353 -0.012432795    -26828.66    2149.7941   0.88632239 -0.0094744618 -0.00010425218   0.88637303    175.82019    175.84592    2.8398053 
   60600       242400    9847.0351   -36494.904    275.26675  0.049368279   -26647.869    1967.4792    3.8152514 -0.042163249 -0.00064037343    3.8154845    175.74019    175.84961    3.0609967 
   60800       243200    9887.7719   -36605.292    276.40551   0.13345944    -26717.52     2035.285    8.6678686 -0.092834872 -0.0018990159     8.668366    175.66019    175.90826    3.6011892 
   61000       244000    9821.4846   -36853.205     274.5525 -0.0076119552   -27031.721    2350.3903     5.835575 -0.063266217 -0.0019253347    5.8359183    175.58019    175.74733    4.1299649 
   61200       244800    9968.0814   -36589.295    278.65051  0.036229785   -26621.213    1940.3132    8.8269834 -0.097279035 -0.0048682666    8.8275208    175.50019    175.75281    4.6566795 
   61400       245600    9762.5075   -36619.515    272.90384  -0.10022242   -26857.008    2178.3236     7.036647 -0.077343284 -0.0054014614    7.0370741    175.42019    175.62165     5.262663 
   61600       246400    9848.0507   -36695.193    275.29513  0.075298771   -26847.142    2167.2162   0.31469091 -0.0035583352 -0.0002672903   0.31471114    175.34019    175.34958    5.4643431 
   61800       247200    9890.0801    -36683.18    276.47004  0.029441174     -26793.1    2112.5557  -0.74763447 0.0081233386 0.00014536456  -0.74767862    175.26019    175.23923    5.5533402 
   62000       248000    9839.0988    -36785.73    275.04489 -9.3637718e-05   -26946.631    2267.3973    2.0410414 -0.021740306 -0.0014484821    2.0411577    175.18019    175.23891    5.5741092 
   62200       248800    9838.5084   -36722.607    275.02839  -0.12923614   -26884.098     2205.903   -1.6840387  0.018706904 9.9486987e-05   -1.6841426    175.10019    175.05247    5.6627267 
   62400       249600    9812.9258     -36642.5    274.31324  0.015427906   -26829.574    2150.9109   -3.4322857  0.035792306 0.0027537248   -3.4324734    175.02019    174.92252    5.3729389 
   62600       250400     9851.463   -36650.751    275.39052 -0.061250268   -26799.288    2119.9734  -0.41796001 0.0042075626 0.00026952416  -0.41798127    174.94019    174.92865    5.3435995 
   62800       251200    9849.0279   -36544.614    275.32245 -0.002534198   -26695.586    2015.7162   -6.1357863  0.062991498 0.0045282649   -6.1361113    174.86019    174.68527    5.1003137 
   63000       252000    9795.2645   -36699.416    273.81953  -0.03865101   -26904.152    2224.5899   -3.5023481  0.037695006 0.0032973181   -3.5025525    174.78019    174.68052    4.6939109 
   63200       252800    9780.2144   -36778.669    273.39882  -0.14894812   -26998.454    2317.4062    -4.232414  0.041041813 0.0051156276   -4.2326161    174.70019    174.57966    4.3906487 
   63400       253600    9921.1109   -36756.843    277.33748 -0.002925787   -26835.732    2152.5434   -4.6049818  0.044387534 0.0064730845   -4.6052002    174.62019    174.48901    4.0062168 
   63600       254400    10093.158    -36846.17    282.14692  0.097985808   -26753.013    2068.8462   -6.7305317  0.066987078 0.0092546319   -6.7308714    174.54019    174.34828    3.5785146 
   63800       255200     9844.149   -36758.504    275.18607    0.1003714   -26914.355    2231.0924   -3.3067062  0.036813803 0.0031783114   -3.3069126    174.46019    174.36611    3.2558148 
   64000       256000    9962.0367   -36610.154    278.48153 -0.0017045029   -26648.117    1965.0192   -2.6488691  0.028755872 0.0051530214   -2.6490302    174.38019    174.30491    2.9911965 
   64200       256800    9871.0506   -36776.621    275.93808 0.0034879857   -26905.571    2224.3348     2.235207 -0.025319496 -0.0037674045    2.2353536    174.30019    174.36446    3.0242738 
   64400       257600    9819.3707   -36806.049    274.49341 0.0087213831   -26986.678     2304.031  -0.26274528 0.0029984771 0.00042080818  -0.26276273    174.22019    174.21308    3.1193089 
   64600       258400    9782.2034   -36668.441    273.45442 -0.041656494   -26886.237    2202.7159    4.1092388 -0.047874934 -0.0049869079    4.1095207    174.14019    174.25801    3.1910926 
   64800       259200    9912.9024   -36726.248    277.10802  0.017655475   -26813.346    2130.5297   -2.0294101  0.022354211 0.0037155966   -2.0295366    174.06019     174.0026    3.2337688 
   65000       260000    9836.4658   -36828.257    274.97129  0.019942322   -26991.791     2310.296   -1.5746031  0.016340773 0.0025294492   -1.5746899    173.98019     173.9356     3.064625 
   65200       260800    9898.8799   -36654.856    276.71603 -0.059635896   -26755.976    2077.1036    3.1926506 -0.035078285 -0.0058505288    3.1928486    173.90019    173.99182    3.2080845 
   65400       261600    9834.8708   -36700.934     274.9267  -0.08853382   -26866.063    2187.3773    3.3093599 -0.035368032 -0.0075628757    3.3095575    173.82019    173.91515    3.5984207 
   65600       262400    9830.8505   -36814.862    274.81432 0.0037351193   -26984.012    2302.3629    3.0459611 -0.031734979 -0.0058174644     3.046132    173.74019    173.82762    3.8886202 
   65800       263200    9807.7478   -36730.122     274.1685  0.063827191   -26922.374    2240.0271    6.1637308 -0.067426192 -0.006687312    6.1641032    173.66019    173.83671     4.283902 
   66000       264000    9918.9633   -36716.908    277.27745  0.057114801   -26797.945    2118.8139    5.1936951 -0.058674085 -0.0055443959    5.1940295    173.58019    173.72899    4.8476275 
   66200       264800    9741.4451   -36767.343    272.31505 -0.039873166   -27025.898    2348.5041    2.9653239  -0.03434083 -0.0010635661     2.965523    173.50019    173.58532    5.1681479 
   66400       265600    9940.4047   -36836.543    277.87683  -0.05204362   -26896.138    2217.5028   0.90877568 -0.010232262 -0.00055880468   0.90883346    173.42019    173.44656    5.2816623 
   66600       266400    9803.1427   -36900.981    274.03977 0.0074158995   -27097.838    2416.2119   -3.7334631  0.039691368 0.0032863932   -3.7336756    173.34019    173.23392    5.2230762 
   66800       267200    9827.1644   -36802.925    274.71127 -0.0033419508   -26975.761    2292.5817   -4.1228319  0.045070681 0.0056972573   -4.1230822    173.26019    173.14279    4.8538989 
   67000       268000     9913.889   -36750.852     277.1356  0.055852662   -26836.963    2156.2504   -1.2539256  0.014264536 0.0017075474   -1.2540079    173.18019    173.14476    4.6480987 
   67200       268800    9887.9538   -36800.813     276.4106 -0.079213351    -26912.86    2233.6403   -3.8190451  0.043367572 0.0061927707   -3.8192964    173.10019    172.99147    4.6101546 
   67400       269600    9725.1185   -36542.484    271.85865 -0.045429202   -26817.365    2138.2392    -4.652704  0.054153014 0.0073895714    -4.653025    173.02019    172.88765    4.2926993 
   67600       270400    9841.8601   -36721.686    275.12208 0.0010970755   -26879.826    2197.7725   -1.8018457  0.019974195 0.0031897793   -1.8019592    172.94019    172.88911    4.0921906 
   67800       271200    9901.5949   -36856.425    276.79193  0.072278238    -26954.83    2270.4382   -2.7143591  0.027432148 0.0044988583   -2.7145015    172.86019    172.78303     3.852961 
   68000       272000    9710.9084   -36788.092    271.46142 -0.032655968   -27077.184    2394.4387    3.6752127 -0.036628201 -0.0073285306    3.6754025    172.78019     172.8856    3.8659664 
   68200       272800    9856.9472   -36762.158    275.54383 -0.029933112   -26905.211    2225.1719    4.6145599 -0.047850861 -0.010773163    4.6148205    172.70019    172.83244    4.3741505 
   68400       273600    9783.3686   -36706.238    273.48699 -0.034412926   -26922.869     2243.627    2.3336019 -0.023955818 -0.0037400275    2.3337279    172.62019    172.68727    4.6102588 
   68600       274400    9855.5813   -36747.058    275.50565 -0.015796885   -26891.477    2211.6497    1.7154486 -0.017520181 -0.0035374479    1.7155417    172.54019    172.58961    4.7918785 
   68800       275200    9967.3523   -36622.912    278.63013  0.052880903    -26655.56    1974.1102   -4.9950282  0.053970631  0.008670926   -4.9953273    172.46019    172.31787    4.5387701 
   69000       276000      9956.73   -36758.063    278.33319 -0.033655378   -26801.333    2118.4921   -5.4047457  0.063265505 0.0086060367   -5.4051229    172.38019    172.22616    4.0684579 
   69200       276800    9818.4366   -36683.977     274.4673 -0.040470726    -26865.54    2184.2211   -4.1726469    0.0486798 0.0048366619   -4.1729336    172.30019    172.18136    3.7311869 
   69400       277600    9794.6022    -36686.68    273.80102 -0.029920508   -26892.078     2210.897   -3.2080504  0.038795174 0.0049860157   -3.2082889    172.22019    172.12893    3.4419649 
   69600       278400    9916.4171   -36836.634    277.20627  -0.12173656   -26920.217    2238.9611   -4.0822811  0.050002699 0.0071696976   -4.0825936    172.14019    172.02395    3.2207674 
   69800       279200    9844.3085   -36841.618    275.19053  -0.06122744    -26997.31    2313.9228   -2.7075918  0.032119127 0.0047014891   -2.7077863    172.06019    171.98323    2.9323053 
   70000       280000    9822.7329   -36683.285    274.58739   0.11832894   -26860.552    2175.0653    1.1874973 -0.014823897 -0.001899595    1.1875913    171.98019    172.01452    2.8396608 
   70200       280800    9683.1911   -36738.543     270.6866  0.040882685   -27055.351    2370.9404   -1.8531479  0.022474596 0.0021042026   -1.8532854    171.90019    171.84764    2.7751983 
   70400       281600    9845.0509   -36625.417    275.21128 -0.052757021   -26780.366    2098.2876  -0.36482228 0.0045920717 0.00084332747  -0.36485215    171.82019    171.81017    2.6744917 
   70600       282400    9918.2223   -36578.076    277.25673  0.056716434   -26659.854    1978.8429   -1.0811575  0.013622843 0.0021097712   -1.0812454    171.74019     171.7097    2.6238267 
   70800       283200    9806.7049   -36817.544    274.13934 -0.0084557861   -27010.839    2328.4173  -0.81292079  0.010095586 0.0015198639   -0.8129849    171.66019    171.63736    2.5509505 
   71000       284000     9838.784   -36761.961    275.03609  0.047346595   -26923.177    2239.3872   -3.3695306  0.040650982 0.0066365132   -3.3697823    171.58019    171.48431    2.4262877 
   71200       284800    9812.8718   -36834.267    274.31173 -0.024917059   -27021.395    2337.1826   -3.3535771  0.038581883 0.0082198178   -3.3538091    171.50019    171.40477    2.1832359 
   71400       285600    9972.4973   -36821.201    278.77395  -0.06964431   -26848.704    2162.8192   -1.2418098  0.014650404 0.0031009548   -1.2419001    171.42019    171.38511    2.0032097 
   71600       286400    9863.7415   -36853.565    275.73376  0.057325048   -26989.823    2304.2821  -0.10058041 0.0011514535 0.00023587703  -0.10058728    171.34019    171.33772      2.02019 
   71800       287200    9971.5421   -36647.294    278.74725  0.024337589   -26675.752     1991.156     1.624363 -0.019225294 -0.0043762719    1.6244826    171.26019    171.30701     2.015051 
   72000       288000     9816.656   -36788.236    274.41752 -0.062252029    -26971.58     2287.934    3.2102973 -0.037701987 -0.0078205332    3.2105282    171.18019    171.27232    2.2075419 
   72200       288800    9917.8211   -36835.848    277.24552 -0.054654849   -26918.027    2234.0416    6.5575126 -0.077975402 -0.018689721    6.5580028    171.10019    171.28796    2.5246781 
   72400       289600    9899.2069   -36816.499    276.72517  0.081842851   -26917.292    2231.8858    9.5930997  -0.11696704 -0.030856502    9.5938624    171.02019     171.2947    3.0615552 
   72600       290400    9846.1745   -36837.005    275.24269 -0.039976197    -26990.83     2306.563     6.840438 -0.085378927 -0.021262587    6.8410038    170.94019    171.13605    3.7092811 
   72800       291200    9842.1667   -36775.614    275.13065   0.01657723   -26933.448    2251.7521    3.6563226 -0.046053733 -0.011053435    3.6566293    170.86019    170.96507    4.0979828 
   73000       292000    9715.0051   -36721.679    271.57594  -0.11390753   -27006.674    2327.2286    4.2753801 -0.056628535 -0.012449778    4.2757732    170.78019    170.90276      4.43505 
   73200       292800    9904.6958   -36774.158    276.87861  -0.10923142   -26869.463    2188.6002    3.8491818 -0.049837438 -0.011106049    3.8495204    170.70019    170.81058    4.7417024 
   73400       293600    9849.1168   -36646.657    275.32494  0.038817925   -26797.541    2114.3604    6.2997256 -0.080784395 -0.017605412    6.3002681    170.62019     170.8006    5.1844117 
   73600       294400    9815.5792   -36590.131    274.38742  0.024790101   -26774.552    2092.3231    3.2661281 -0.044604594 -0.0065655514    3.2664393    170.54019    170.63392    5.5775942 
   73800       295200    9913.2378   -36789.999     277.1174  0.010953381   -26876.761     2196.322    2.8168126 -0.038129372 -0.0051424721    2.8170753    170.46019    170.54108    5.8581491 
   74000       296000    9721.4619   -36715.691    271.75644  0.076301153   -26994.229    2313.9591     3.481832 -0.046171284 -0.0074615867    3.4821461    170.38019    170.48008    6.1506744 
   74200       296800    10003.608   -36640.199    279.64362 -0.059775176   -26636.591    1956.4456  -0.98661168  0.013239704 0.0017143212    -0.986702    170.30019     170.2724    6.2821745 
   74400       297600     9856.207   -36767.994    275.52314 -0.032460397   -26911.787    2231.3945    0.5487139 -0.007435623 -0.0011522089   0.54876549    170.22019    170.23627    6.1135888 
   74600       298400    9891.7506   -36810.592    276.51674  0.075854846   -26918.841    2237.1848  -0.24624816  0.003177968 0.00037034019  -0.24626894    170.14019    170.13356    6.1806095 
   74800       299200    9910.2805   -36863.533    277.03472 -0.0056469772   -26953.253    2270.7593  -0.43985674 0.0057270351 0.00063627387  -0.43989448    170.06019    170.04802    6.1285224 
   75000       300000     9963.454   -36870.735    278.52115  0.031925215    -26907.28    2225.6001   -2.9949361    0.0397153 0.0038471088   -2.9952019    169.98019    169.89501    5.8958535 
   75200       300800    9874.5814   -36880.695    276.03678 -0.010001844   -27006.114    2324.3996   -1.8887171  0.024920096 0.0043364478   -1.8888865    169.90019    169.84662    5.6300644 
   75400       301600    9904.2468    -36693.05    276.86606   0.11339544   -26788.804    2105.9883   -6.2717783  0.082362305  0.016073072   -6.2723396    169.82019    169.64138     5.263284 
   75600       302400    9862.1625   -36743.569    275.68962 -0.033019359   -26881.406    2199.4117    -4.701251  0.059067568  0.013975632   -4.7016429    169.74019    169.60626    4.7324452 
[...]
  380800      1523200    9776.1564   -35828.616    273.28538   0.57891717   -26052.459    7428.0483    458.57725   -27.529332    4.2609933    459.42258    47.660192    60.786951     9181.463 
  381000      1524000    9908.6118   -35754.345    276.98808   0.61276279   -25845.734    7223.7258    461.33646   -28.978416    4.3630522    462.26628    47.580192      60.7882    9218.4001 
  381200      1524800    9862.0393   -35705.512    275.68618   0.53986555   -25843.473    7252.5376    461.81263   -28.881723    4.0618907     462.7327    47.500192    60.721526    9255.4405 
  381400      1525600    9940.5265   -35628.769    277.88023   0.59442793   -25688.242    7133.2814    461.75084   -28.593189    4.1785812    462.65416    47.420192    60.639282    9292.4818 
  381600      1526400    9838.5473   -35882.704    275.02947   0.72603153   -26044.157    7503.0541    463.26813   -29.086777    4.4666662    464.20185    47.340192    60.603502    9329.5029 
  381800      1527200    9729.8225   -35888.737    271.99015   0.69078168   -26158.915    7617.0666    465.93414   -29.842089    3.7161525    466.90361    47.260192    60.600695    9366.7297 
  382000      1528000     9842.274   -35857.536    275.13365   0.68654308   -26015.262    7515.1145    465.79682   -29.772501    3.2856322     466.7589    47.180192     60.51656    9404.1673 
  382200      1528800    9905.0586   -35738.834    276.88875   0.64898958   -25833.776     7380.663    465.28411   -29.012668    2.6176106    466.19512    47.100192    60.420452    9441.4848 
  382400      1529600    9904.8398   -35669.614    276.88263   0.61335709   -25764.774    7322.2096    467.40804   -29.579976    2.0005143    468.34737    47.020192    60.401945    9478.7634 
  382600      1530400    9741.0422   -35708.272    272.30379   0.63686623    -25967.23    7584.3835    465.51947   -29.654824    1.8862831    466.46687    46.940192    60.268217    9516.2574 
  382800      1531200    9967.9315   -35660.007    278.64632   0.77347363   -25692.075    7323.2885    467.06833   -29.886354    2.0800555    468.02814    46.860192    60.232824    9553.6185 
  383000      1532000    9814.0191   -35527.891    274.34381   0.62423802   -25713.872    7336.9539    470.50195   -29.878554     2.564802    471.45667    46.780192    60.250782    9591.1394 
  383200      1532800    9925.2676   -35805.824    277.45368   0.66072007   -25880.557    7488.1636    474.55048   -30.628522    3.1131282    475.54806    46.700192    60.287679    9629.0568 
  383400      1533600    9827.1459   -35770.042    274.71076   0.56945592   -25942.896    7545.9863    477.76049   -30.603755    2.3230725    478.74531    46.620192    60.299029    9667.2573 
  383600      1534400    9759.2211   -35801.846    272.81197   0.64965415   -26042.625    7683.6086    477.73898   -31.292183    4.1663355    478.78084    46.540192    60.220044    9705.5857 
  383800      1535200    9847.9205   -35765.871     275.2915   0.58110353   -25917.951    7539.3603     481.8881   -31.702087    4.8306667    482.95393    46.460192    60.259275    9743.9397 
  384000      1536000    9764.1582   -35596.509    272.94998   0.72245457   -25832.351    7540.6381    478.35726   -30.752318    4.4979297    479.36584    46.380192    60.076758    9782.5205 
  384200      1536800    9848.5742   -35742.983    275.30977   0.68180715   -25894.408    7636.6217    478.47913   -31.099704    5.6362462    479.52188    46.300192    60.001217     9820.821 
  384400      1537600     9825.527   -35796.023     274.6655    0.6619857   -25970.496    7748.8363    478.63714   -30.203161    4.9633532    479.61483    46.220192    59.923872    9859.2189 
  384600      1538400    9789.0655   -35759.688    273.64625   0.71099958   -25970.623    7746.5607    481.71244   -29.771364    4.4722367    482.65227    46.140192    59.930656    9897.7232 
  384800      1539200    9843.5473   -35673.118    275.16925   0.62959993    -25829.57    7582.2123      486.219   -30.021277    5.0165219    487.17077    46.060192    59.979757    9936.6383 
  385000      1540000    9861.6989   -35714.267    275.67666   0.63162775   -25852.568    7632.8375    487.17648   -29.494338    5.0480414    488.09458    45.980192    59.926151    9975.5823 
  385200      1540800    9946.0656   -35788.585    278.03507   0.68436234   -25842.519    7553.6841    494.66409   -30.321936    5.4754363     495.6228    45.900192    60.061243    10014.902 
  385400      1541600    9730.8419   -35713.506    272.01865     0.725996   -25982.664     7701.188    496.95134   -30.376021    5.6563131    497.91097    45.820192    60.046619    10054.622 
  385600      1542400    9841.7842   -35744.276    275.11996   0.73957122   -25902.492    7696.6959    494.48965   -29.778147    6.2447032    495.42482    45.740192    59.895586    10094.346 
  385800      1543200     9983.227   -35665.455    279.07389   0.61637598   -25682.228    7510.8177    494.98708   -30.373048    7.2483616    495.97103    45.660192    59.831193    10134.005 
  386000      1544000    9812.6406    -35452.36    274.30527   0.67151733   -25639.719    7490.0411    496.23121   -30.797648    7.5701421    497.24361    45.580192    59.787552    10173.699 
  386200      1544800    9920.3399   -35427.815    277.31593   0.78653413   -25507.475    7429.4875    493.86512   -30.565308    6.3231092    494.85046    45.500192    59.639176    10213.378 
  386400      1545600      10022.1   -35590.775    280.16056    0.7967067   -25568.675      7513.01    494.90588   -31.552378    5.0107363    495.93598    45.420192    59.590191    10252.966 
  386600      1546400    9914.4136   -35551.316    277.15026   0.74713399   -25636.903    7556.5191    499.55935   -32.238479    5.5854408    500.62967    45.340192    59.644296    10292.757 
  386800      1547200     9809.693   -35433.736    274.22287   0.58777841   -25624.043    7565.3933    500.90625   -32.960957    5.0859203     502.0153    45.260192    59.603886    10332.932 
  387000      1548000     9796.493   -35300.126    273.85388   0.73337749   -25503.633    7477.9479    501.33568   -33.688031    4.5076486    502.48648    45.180192    59.537348    10373.136 
  387200      1548800    9925.3187   -35568.225    277.45511   0.74837127   -25642.907    7546.7052    509.01692   -32.935363    6.2574597    510.11971    45.100192    59.675441    10413.778 
  387400      1549600    9992.8033   -35508.211    279.34159   0.63118396   -25515.408    7477.5353    507.72365   -32.349989    6.6415671    508.79656    45.020192    59.557636    10454.569 
  387600      1550400     9674.097   -35593.086    270.43239   0.74133241   -25918.989    7925.8935    507.51284   -32.128844    7.3336905    508.58168    44.940192    59.471497    10495.199 
  387800      1551200    9790.0297   -35489.308     273.6732   0.66663952   -25699.278    7671.2302    512.72651   -32.200945    6.6414252     513.7796    44.860192    59.540009    10536.243 
  388000      1552000    9934.1698   -35357.154    277.70253   0.62593011   -25422.984    7482.4919    509.63171    -32.07847    5.4268243    510.66913    44.780192    59.371138    10577.161 
  388200      1552800    9880.1813   -35411.824    276.19333   0.57082042   -25531.642    7606.8015    511.30182    -32.28721    6.8455448    512.36596    44.700192    59.339619    10618.143 
  388400      1553600    9821.4416   -35574.154     274.5513   0.64004021   -25752.712    7836.3005    513.43458   -33.668158    5.8579443    514.57062    44.620192    59.322609    10659.166 
  388600      1554400     9850.763   -35410.197    275.37096   0.73659866   -25559.434    7657.1398    515.31488   -32.499019    5.6551921    516.36962    44.540192    59.294009    10700.466 
  388800      1555200    9929.4219   -35362.942    277.56981   0.80773989    -25433.52    7596.3102    513.59033   -33.276325    5.3095156     514.6946    44.460192    59.166152    10741.647 
  389000      1556000    9781.2502   -35442.033    273.42778   0.68532975   -25660.783    7817.6591    516.72868   -33.831409    4.0490431    517.85084    44.380192     59.17633    10783.072 
  389200      1556800    9941.6195   -35319.686    277.91078    0.7800775   -25378.066    7560.4778    517.75118   -34.786396     4.645628    518.93927    44.300192    59.127428    10824.649 
  389400      1557600    9888.9887   -35330.318    276.43953   0.69653062   -25441.329    7648.4173     518.9594   -34.028848    5.0751634    520.09862    44.220192    59.080552    10866.147 
  389600      1558400    9837.4524   -35422.364    274.99887    0.6036151   -25584.912    7760.2974    523.94823   -35.115709    5.5920216    525.15344    44.140192    59.144976    10907.891 
  389800      1559200    9831.3304   -35382.928    274.82773   0.64006397   -25551.598    7758.9819    524.71543   -33.670455    6.0146613    525.82902    44.060192    59.084278    10949.952 
  390000      1560000    9721.2989   -35424.919    271.75188   0.66772432   -25703.621    7958.4231     524.1683   -34.730634    5.6639427    525.34817    43.980192    58.990539    10992.006 
  390200      1560800    9830.2084   -35385.395    274.79637   0.72156829   -25555.186    7827.7321    525.72692   -33.760507    5.9469397    526.84337    43.900192    58.953259    11034.083 
  390400      1561600    9848.0901   -35343.167    275.29624   0.75187814   -25495.077    7824.9429    524.75751    -33.01818    5.0374919    525.81939    43.820192    58.844003    11076.181 
  390600      1562400    9809.3346   -35438.782    274.21286   0.68180264   -25629.447    7942.8745    528.74163   -32.703392    5.5779059     529.7814    43.740192    58.877203     11118.43 
  390800      1563200    9803.9648   -35199.283    274.06275   0.64172475   -25395.318    7733.4436    530.00113   -32.482744    5.9411752    531.02883    43.660192    58.832844    11160.889 
  391000      1564000    9929.5748    -35335.69    277.57408   0.66988768   -25406.115    7791.3596     529.5911   -32.736557    6.5342581    530.64217    43.580192    58.741797    11203.285 
  391200      1564800    9756.5838   -35325.371    272.73825   0.79459312   -25568.787    7951.9901    532.51048   -32.881307    5.6426266    533.55453    43.500192    58.745007    11245.926 
  391400      1565600    9797.1988   -35089.708    273.87361   0.74146374   -25292.509    7752.3175     530.3153    -32.88473    5.8018143    531.36558    43.420192    58.602465    11288.437 
  391600      1566400    9842.1391   -35218.451    275.12988   0.62149347   -25376.312    7788.5638    536.19947    -34.20758    5.6350774    537.31907    43.340192    58.692565    11331.198 
  391800      1567200    9823.7831   -35121.929    274.61675   0.68598789   -25298.146    7743.6347    536.76297   -34.920934    5.2516774    537.92335    43.260192     58.62983    11374.184 
  392000      1568000    9810.8962   -35195.187    274.25651   0.66298666    -25384.29    7823.4459     539.9117   -35.062601    6.0770302    541.08314    43.180192     58.64011    11417.386 
  392200      1568800    9874.6583   -35064.468    276.03893   0.77517217    -25189.81    7544.1389     548.2001   -35.999102    4.9348406    549.40298    43.100192     58.79782    11460.979 
  392400      1569600    9873.7908   -35188.023    276.01468   0.70053317   -25314.232    7720.5096    547.80012   -35.929535    4.2846805    548.99387    43.020192    58.706131    11504.961 
  392600      1570400    9659.7411   -35221.232    270.03108   0.68560345   -25561.491    8005.4073    548.13396   -36.015818    5.0218943    549.33887    42.940192    58.635988    11548.847 
  392800      1571200     9798.813   -35219.269    273.91873   0.67481214   -25420.456    7887.9113    549.39896   -35.676289    5.7443138    550.58606    42.860192    58.591622    11592.828 
  393000      1572000    9838.9369   -35059.566    275.04037   0.67140467   -25220.629    7792.9488    545.53886   -35.242953    5.0424519    546.69931    42.780192    58.400572    11636.825 
  393200      1572800    10002.075   -35000.076    279.60078   0.76066843   -24998.001    7654.2274    542.97177   -35.077325    5.7811526    544.13434    42.700192    58.247287    11680.455 
  393400      1573600    9892.0568   -35043.389    276.52529   0.77760637   -25151.333    7793.6537    546.76815    -34.20705    5.7179267    547.86698    42.620192    58.273934    11724.064 
  393600      1574400    9963.1714     -34970.2    278.51325   0.68561522   -25007.029    7699.2217    546.32984   -34.868099    5.5882655    547.46992    42.540192    58.182589    11767.895 
  393800      1575200    9759.4347   -34940.267    272.81794   0.72257579   -25180.832     7900.937    547.37716   -34.074102    5.6188721    548.46547    42.460192    58.131034    11811.808 
  394000      1576000    9937.4265   -34852.843    277.79357   0.71798443   -24915.417    7720.0347    544.58075   -34.715176    5.5903319    545.71475    42.380192    57.972442    11855.664 
  394200      1576800    9941.4041   -35114.897    277.90476   0.74014118   -25173.493    7951.6396    548.96101   -36.119147    5.7582514     550.1781    42.300192    58.019966    11899.543 
  394400      1577600    9682.9366   -35010.237    270.67949   0.72525122   -25327.301    8119.2247    551.00229   -35.692876    5.4157248     552.1837    42.220192    57.997269    11943.678 
  394600      1578400    9896.4519    -34964.17    276.64816    0.7795887   -25067.718    7881.3476    552.41508   -35.952887    5.8547223    553.61476    42.140192    57.958156    11987.849 
  394800      1579200    9750.7549   -34936.611     272.5753   0.76012291   -25185.856    8055.3907    551.55474    -36.64379    6.2634175    552.80614    42.060192    57.855053     12032.19 
  395000      1580000    9902.8462   -34936.713     276.8269   0.81274888   -25033.867    7861.5827    556.91407   -37.499073    5.9201243    558.20651    41.980192    57.929349    12076.724 
  395200      1580800    9682.9191   -35061.871      270.679   0.76064478   -25378.951    8222.3221     558.7718   -37.347165    6.1275872    560.05204    41.900192    57.902078    12121.459 
  395400      1581600    9780.8277   -34916.046    273.41596   0.81119909   -25135.218    7952.3248    563.39462    -36.45578    4.3196968    564.58939    41.820192    57.951717    12166.368 
  395600      1582400     9823.072    -34887.59    274.59688   0.63827225   -25064.518     7956.148    561.63011   -37.128774    4.1432932    562.87129    41.740192    57.822628    12211.336 
  395800      1583200     9725.004   -34816.566    271.85545   0.71580272   -25091.562    7964.0275    565.63841   -36.687307    5.3858269    566.85252    41.660192    57.856378    12256.562 
  396000      1584000    9811.2382   -34764.525    274.26607   0.74392161   -24953.287    7871.5613    565.59765    -36.72341    4.2780025    566.80474    41.580192    57.775013    12302.057 
  396200      1584800    9900.7716   -34633.917    276.76891   0.81299055   -24733.145    7704.2566    565.04109    -37.07013    3.7811265    566.26842    41.500192    57.679689    12347.308 
  396400      1585600    9891.5806   -34733.828    276.51198   0.75639122   -24842.248    7847.7946     565.6697   -37.428224    4.8121542    566.92702    41.420192    57.618506    12392.576 
  396600      1586400    9693.8276   -34804.523    270.98394   0.60673406   -25110.696    8144.8739    566.76728   -37.656264    4.4999594    568.03468    41.340192    57.570154    12438.048 
  396800      1587200     9781.794   -34730.126    273.44298   0.64215059   -24948.332    8014.5739    567.51962   -37.752699    6.2036381    568.80776    41.260192    57.512242    12483.653 
  397000      1588000     9749.388   -34723.212    272.53709   0.60944999   -24973.824     8044.841    569.92696   -38.433889    7.0608539    571.26505    41.180192     57.50245    12529.321 
  397200      1588800    9925.5655   -34800.951    277.46201   0.78093465   -24875.386    8002.4013    569.17896   -38.272392    7.0690948    570.50805    41.100192    57.400822    12574.936 
  397400      1589600    9931.0791   -34680.541    277.61613   0.85134652   -24749.462    7884.4738    571.55246   -37.363171    6.5887107    572.81029    41.020192      57.3866    12620.582 
  397600      1590400    9856.7058   -34613.175    275.53708   0.77156892   -24756.469    7960.0566    570.22395   -37.021825    8.1085772    571.48204    40.940192     57.26865    12666.313 
  397800      1591200     9869.625   -34594.814    275.89823   0.74795886   -24725.189    7929.7258    573.16863   -35.075941    7.4920748    574.28976    40.860192    57.268871    12712.097 
  398000      1592000    9865.9534    -34560.25    275.79559   0.67580415   -24694.296    7987.9086    570.41514   -35.803871    6.3573748    571.57306    40.780192    57.111251    12757.911 
  398200      1592800    9840.3034   -34605.013    275.07857   0.80480859    -24764.71    8077.6438    571.93666   -36.797155    6.9134252    573.16086    40.700192    57.076616    12803.569 
  398400      1593600    9881.8002    -34575.37    276.23858     0.892447   -24693.569    8001.3334    575.05755   -36.224238    4.9837824     576.2189    40.620192    57.083989    12849.394 
  398600      1594400    9848.0022   -34524.589    275.29378   0.76711611   -24676.587    7987.1153    577.73436   -36.468061    5.6750432    578.91201    40.540192    57.080935    12895.573 
  398800      1595200    9775.8423    -34696.84     273.2766   0.81990758   -24920.998    8178.0894    583.73815   -37.197506    5.5622946    584.94856    40.460192    57.173408    12942.156 
  399000      1596000    9827.6313   -34693.451    274.72433   0.72200568    -24865.82     8121.889    586.59012   -37.533549    5.8119972    587.81844    40.380192    57.175404    12989.155 
  399200      1596800      9831.58   -34547.275    274.83471   0.73708407   -24715.695    8060.3069    584.06053   -37.341773     5.708547    585.28087    40.300192    57.022902    13035.982 
  399400      1597600     9846.421   -34607.409    275.24958   0.73563085   -24760.988    8091.0401    587.63658   -37.340027    6.0636947    588.85295    40.220192    57.044962     13082.88 
  399600      1598400    9763.4165   -34538.228    272.92925   0.90303234   -24774.812    8134.9949    588.69385   -37.601452    4.8312851    589.91327    40.140192    56.995256    13130.067 
  399800      1599200    9939.0829   -34584.668    277.83988   0.76566806   -24645.585    8021.3539    590.62426    -37.18971    5.5448916    591.81994    40.060192    56.969733    13177.386 
  400000      1600000    9775.6975   -34400.469    273.27255   0.69464025   -24624.772    8086.5788    588.44507   -36.328722    4.6288264    589.58358    39.980192    56.825837    13224.686 
Loop time of 5593.02 on 8 procs for 400000 steps with 12002 atoms

Performance: 24.717 ns/day, 0.971 hours/ns, 71.518 timesteps/s
82.8% CPU use with 8 MPI tasks x no OpenMP threads

MPI task timing breakdown:
Section |  min time  |  avg time  |  max time  |%varavg| %total
---------------------------------------------------------------
Pair    | 97.774     | 1045.9     | 2501.4     |2932.2 | 18.70
Bond    | 0.67494    | 6.6536     | 15.741     | 236.4 |  0.12
Neigh   | 2522.8     | 2530       | 2537.1     |  13.5 | 45.24
Comm    | 128.7      | 1142.5     | 1773.6     |1598.4 | 20.43
Output  | 383.12     | 383.23     | 383.42     |   0.5 |  6.85
Modify  | 21.523     | 470.21     | 1017.6     |2095.9 |  8.41
Other   |            | 14.56      |            |       |  0.26

Nlocal:        1500.25 ave        3205 max           0 min
Histogram: 4 0 0 0 0 0 0 0 1 3
Nghost:        4471.00 ave        7895 max        1071 min
Histogram: 4 0 0 0 0 0 0 0 0 4
Neighs:       184668.0 ave      454029 max           0 min
Histogram: 4 0 0 0 0 0 1 1 1 1

Total # of neighbors = 1477343
Ave neighs/atom = 123.09140
Ave special neighs/atom = 185.06916
Neighbor list builds = 40000
Dangerous builds = 0

Total wall time: 1:33:13
