LAMMPS (29 Oct 2020)
Reading data file ...
  orthogonal box = (0.0000000 0.0000000 0.0000000) to (1000.0000 1000.0000 1000.0000)
  3 by 4 by 6 MPI processor grid
  reading atoms ...
  12002 atoms
  scanning bonds ...
  600 = max bonds/atom
  reading bonds ...
  12000 bonds
Finding 1-2 1-3 1-4 neighbors ...
  special bond factors lj:    0.0      0.0      0.0     
  special bond factors coul:  0.0      0.0      0.0     
   600 = max # of 1-2 neighbors
   600 = max # of 1-3 neighbors
  1200 = max # of 1-4 neighbors
  1800 = max # of special neighbors
  special bonds CPU = 0.196 seconds
  read_data CPU = 0.231 seconds
Finding 1-2 1-3 1-4 neighbors ...
  special bond factors lj:    0.0      1.0      1.0     
  special bond factors coul:  0.0      0.0      0.0     
   600 = max # of 1-2 neighbors
   600 = max # of 1-3 neighbors
  1200 = max # of 1-4 neighbors
  1800 = max # of special neighbors
  special bonds CPU = 0.043 seconds
1 atoms in group centroid1
1 atoms in group centroid2
Neighbor list info ...
  update every 1 steps, delay 0 steps, check yes
  max neighbors/atom: 2000, page size: 100000
  master list distance cutoff = 43
  ghost atom cutoff = 43
  binsize = 21.5, bins = 47 47 47
  1 neighbor lists, perpetual/occasional/extra = 1 0 0
  (1) pair lj/expand, perpetual
      attributes: half, newton on
      pair build: half/bin/newton
      stencil: half/bin/3d/newton
      bin: standard
Setting up Verlet run ...
  Unit style    : real
  Current step  : 0
  Time step     : 4.0
Per MPI rank memory allocation (min/avg/max) = 193.8 | 194.0 | 197.0 Mbytes
Step Time KinEng PotEng Temp Press TotEng f_1 f_2[1] f_2[2] f_2[3] f_2[4] f_2[5] f_2[6] f_2[7] 
       0            0    9837.4929   -33256.802          275 -0.046709234   -23419.309            0            0            0            0            0    199.95287    199.95288            0 
   20000        80000    9838.4532   -33285.369    275.02684 -0.063089665   -23446.916    27.508199  -0.93659734 0.00057538681 0.00078353159  -0.93659785    199.87287    199.84612   0.01214704 
   40000       160000    9937.3703   -33513.279      277.792 -0.024856566   -23575.908    153.27186   -3.1201408 0.0090626571  0.011725179    -3.120176    199.79287    199.70373 -0.026397022 
   60000       240000    9841.3323   -33554.589    275.10733   0.11664966   -23713.257    286.88124   -1.2976741 0.0061163523 0.0062723571   -1.2977037    199.71287     199.6758  -0.02407275 
   80000       320000    9776.9778   -33724.723    273.30834 -0.028026951   -23947.745    522.65134   -2.2729416 0.0092840089  0.011951079    -2.272992    199.63287    199.56794  0.017743935 
  100000       400000    9784.6803   -33597.654    273.52366  0.068806707   -23812.974    385.88548   -4.6808427  0.029055383  0.030888148   -4.6810348    199.55287    199.41913 -0.020961661 
  120000       480000    9906.8612   -33652.898    276.93914 -0.018031368   -23746.037     319.7115   -2.4526832   0.02453226  0.020532634   -2.4528918    199.47287     199.4028 -0.026231889 
  140000       560000    9779.2612   -33706.904    273.37217 0.0014200427   -23927.643    500.42465    8.5432292 -0.098799644 -0.078381761      8.54416    199.39287      199.637 -0.0062881066 
  160000       640000    9843.5311   -33755.648    275.16879  0.013229866   -23912.117    481.57086   0.69328871 -0.0066582897 -0.0071291324   0.69335733    199.31287    199.33269  0.011748752 
  180000       720000    9939.5125   -33662.817    277.85188 -0.0095275338   -23723.305    296.56452     6.868998  -0.08519441 -0.081579049    6.8700107    199.23287    199.42916 -0.020475914 
  200000       800000    9874.2067   -33951.697    276.02631 -0.059099454    -24077.49    647.79989   -1.0929012   0.01571267   0.01378407   -1.0931011    199.15287    199.12165 -0.0067779694 
  220000       880000     9875.744   -33910.232    276.06928  -0.14865654   -24034.488    605.70557    1.2878988 -0.020295704 -0.016385377    1.2881629    199.07287    199.10968 0.0066529387 
  240000       960000    9891.3471   -33926.379    276.50546 0.0026738943   -24035.032    606.08592   -1.6919486   0.03060965  0.023823952   -1.6923932    198.99287    198.94452  0.028261578 
  260000      1040000    9885.6514   -33910.486    276.34624  0.021870154   -24024.835    594.37006    2.3303202 -0.045874131 -0.038791415    2.3310945    198.91287    198.97948  0.013336549 
  280000      1120000    9884.4668   -34003.752    276.31312  0.023495153   -24119.286    686.34137    2.6270859 -0.057089071 -0.047067865    2.6281277    198.83287    198.90797 -0.011466519 
  300000      1200000    9842.7103   -33812.364    275.14585  -0.12004121   -23969.654    543.64822    4.0398328 -0.094482397 -0.077884275     4.041688    198.75287    198.86835  -0.03366944 
  320000      1280000    9796.6822   -33912.003    273.85917 -0.095817186   -24115.321    686.57152    5.4756896  -0.13838508  -0.11066492    5.4785559    198.67287    198.82941  0.016797228 
  340000      1360000    9725.7625   -33965.958    271.87666 -0.055257032   -24240.195    811.58128    4.5880032  -0.11594005  -0.11254794    4.5908477    198.59287    198.72405 -0.0068371612 
  360000      1440000     9925.343   -34044.543    277.45579  0.037770819     -24119.2    687.18425    1.6785117 -0.045443797 -0.039942137    1.6796018    198.51287    198.56087 -0.0041083268 
  380000      1520000    9830.6066   -34164.731     274.8075 0.0071291278   -24334.125    901.11252    -4.676912   0.13096492    0.1132077   -4.6801147    198.43287    198.29916 -0.022304928 
  400000      1600000    9899.9834   -34155.241    276.74688   0.12460051   -24255.258    823.14209   -1.6852179  0.049457813  0.044973711   -1.6865433    198.35287    198.30469 0.0045161114 
  420000      1680000    9954.3275    -34113.02    278.26603 -0.049955956   -24158.693    728.41698    1.1751158 -0.035071237 -0.033532813    1.1761172    198.27287    198.30648 0.0023251487 
  440000      1760000     9855.232   -34105.812    275.49588  0.029760296    -24250.58    818.75613   0.83906106 -0.026526704 -0.024988247    0.8398521    198.19287    198.21687 0.0066325386 
  460000      1840000    10016.648    -34006.93    280.00814   0.05733474   -23990.282    559.07562   -2.9394087  0.096313786  0.092210648   -2.9424315    198.11287    198.02881  0.001148766 
  480000      1920000    9882.1448   -34194.642    276.24821 -0.027610185   -24312.498    881.79011   -6.1536904    0.2181519   0.19235121   -6.1605596    198.03287    197.85686 0.0053076524 
  500000      2000000    9770.9882   -34020.566    273.14091 -0.019698779   -24249.578    819.22074   -1.0154884  0.037557972  0.032741136     -1.01671    197.95287    197.92383 -0.012101976 
  520000      2080000    9813.9649   -34021.388    274.34229   0.12177649   -24207.423    775.29822   -3.5009933   0.13255736   0.12657835   -3.5057877    197.87287    197.77271 0.0057961143 
  540000      2160000     9818.094   -34377.067    274.45772   0.11822697   -24558.973    1124.4046  -0.70142588  0.027680089  0.025845143  -0.70244745    197.79287    197.77281 -0.0021388283 
  560000      2240000     9712.674   -34377.725    271.51078 -0.038417878   -24665.051     1233.854   0.58438371 -0.023852982 -0.022271322    0.5852942    197.71287     197.7296  0.017204865 
  580000      2320000    10054.349   -34182.242    281.06205 -0.084510516   -24127.893    696.46155   -5.9989319   0.25761404   0.24620773   -6.0095064    197.63287    197.46118 0.0029482941 
  600000      2400000    9851.5741   -34185.247    275.39363 -0.013069975   -24333.673    902.59456     2.597333  -0.11285812  -0.11047696    2.6021301    197.55287    197.62722  0.013249311 
  620000      2480000    9966.7433   -34031.149     278.6131  -0.13541568   -24064.405     633.4977   -1.0754052   0.04811864  0.046883782   -1.0775017    197.47287    197.44209 -0.024840085 
  640000      2560000    9983.4768   -34343.238    279.08087  0.046670395   -24359.762    925.57149     4.381628  -0.20081385  -0.19213745    4.3904336    197.39287    197.51832 0.0049168278 
  660000      2640000    10007.869   -34368.992    279.76274  0.056144299   -24361.123    925.06771    1.5347811 -0.075958211 -0.072826281    1.5383843    197.31287    197.35683 -0.0022577984 
  680000      2720000    9751.8871   -34413.817    272.60695  0.061508922    -24661.93    1227.9697   -4.1092926   0.20767157   0.19776345   -4.1192868    197.23287    197.11518 -0.029547559 
  700000      2800000     9804.124   -34157.218     274.0672 -0.0061405319   -24353.094    924.47032   -5.7145888   0.29811788    0.2880291   -5.7296038    197.15287    196.98918 -0.017915841 
  720000      2880000    9830.4768    -34049.54    274.80387 0.00024298104   -24219.064    785.69002   -1.1627255  0.059614364  0.059727887   -1.1657838    197.07287    197.03957  0.021010875 
  740000      2960000    9835.5435   -34123.827    274.94551 -0.0031247153   -24288.283    853.56507   0.90488794 -0.049710414 -0.049160423   0.90758474    196.99287    197.01881 -0.0042472358 
  760000      3040000    9829.2033   -34178.428    274.76827 -0.018944639   -24349.225    915.11342  -0.23650703  0.013206893  0.012698052  -0.23721559    196.91287     196.9061 -0.0048038654 
  780000      3120000    9768.4643   -34278.796    273.07036  0.031650954   -24510.332    1074.3945      4.74228  -0.27120919  -0.26301098    4.7573048    196.83287     196.9688 0.0051854221 
  800000      3200000    9896.3213   -34158.527    276.64451   0.03132935   -24262.206    829.35356    2.1020225   -0.1240871  -0.12058805     2.109132    196.75287    196.81314 -0.013719834 
  820000      3280000     9717.813   -34244.695    271.65444   0.15608217   -24526.882    1090.6922    5.6636585  -0.34244378   -0.3332724     5.683781    196.67287    196.83527  0.030006192 
  840000      3360000    9694.3332     -34484.2    270.99808 -0.016159302   -24789.867    1355.5726    6.9147967  -0.42316628  -0.41622105     6.940225    196.59287    196.79117  0.016644694 
  860000      3440000    9899.4689   -34391.157    276.73249 -0.010598732   -24491.688    1056.7023    -5.622293   0.35160502   0.34653048   -5.6439249    196.51287    196.35162 0.0010899724 
  880000      3520000    9939.5268   -34461.399    277.85229 -0.0017317671   -24521.873    1087.2886   0.60499945 -0.037619606 -0.037888578    0.6073509    196.43287    196.45023  0.005452075 
  900000      3600000    9856.4745   -34283.266    275.53062 -0.0047810632   -24426.792    992.58622   -1.8877255   0.12057755   0.12094577   -1.8954351    196.35287    196.29872 -0.014250138 
  920000      3680000    9942.1379   -34356.517    277.92527 -0.027779223   -24414.379    981.45607   -6.8755492   0.44690926   0.44550643   -6.9044465    196.27287    196.07561 0.0073837366 
  940000      3760000    9859.0776   -34155.678    275.60339  0.020582245     -24296.6    863.57456    4.9147855  -0.33349802  -0.33422602    4.9374127    196.19287    196.33395  0.014685667 
  960000      3840000    9940.2831   -34286.426    277.87343  -0.02430834   -24346.143    912.94978    1.5653496  -0.10817539  -0.10679838    1.5727133    196.11287    196.15781   -0.0255641 
  980000      3920000    9706.7581   -34429.972     271.3454 -0.087822651   -24723.214    1291.1274   -1.8931784   0.13187761   0.13345189   -1.9024526    196.03287    195.97852 -0.022222282 
 1000000      4000000    9846.2871   -34404.323    275.24583  0.093351911   -24558.036    1121.9727   -1.4295847   0.10480539   0.10240289   -1.4370744    195.95287    195.91182 0.00038787788 
 1020000      4080000     9851.431   -34374.227    275.38963 -0.020020106   -24522.796     1086.943   -0.7396601  0.054014182   0.05473128  -0.74364649    195.87287    195.85163  0.024326679 
 1040000      4160000    9718.0441   -34298.804     271.6609 -0.076511839    -24580.76    1149.9598   0.60614389 -0.045780786 -0.044788651    0.6095181    195.79287    195.81029 -0.016122151 
 1060000      4240000    9760.9327    -34400.29    272.85982  0.082508642   -24639.357    1206.5791   -2.4832125   0.19257617   0.18610915   -2.4976122    195.71287    195.64152 -0.0087713081 
 1080000      4320000    9814.1991    -34510.33    274.34884  -0.06240828   -24696.131    1260.3488    1.2967848  -0.10287294 -0.098276094    1.3045658    195.63287    195.67015 -0.011654409 
 1100000      4400000    9872.2213    -34403.82    275.97081  0.023173479   -24531.599     1094.114    7.2663511   -0.5707369  -0.57392319    7.3112917    195.55287    195.76177 -0.018418802 
 1120000      4480000    9873.2762   -34561.653     276.0003  0.015878402   -24688.377    1254.8907   0.86702337  -0.06787807 -0.069811874   0.87247387    195.47287    195.49781 -0.002616511 
 1140000      4560000    9778.2984   -34448.111    273.34526  0.035237742   -24669.813    1236.7658   -2.2005303   0.17791095   0.17968791    -2.215011    195.39287    195.32959 -0.026492698 
 1160000      4640000    9853.5899   -34490.528    275.44998  0.065845271   -24636.938     1201.691   -6.3523851   0.53220813   0.52002697   -6.3958166    195.31287    195.13014 -0.010982499 
 1180000      4720000     9849.627   -34518.808     275.3392  0.051034928   -24669.181    1233.5227    -6.305918    0.5207596    0.5139472   -6.3482229    195.23287     195.0515 -0.0091968555 
 1200000      4800000    9843.0918   -34384.051    275.15651  0.037586592   -24540.959    1105.6443    -3.311959    0.2752276   0.27947521   -3.3351055    195.15287    195.05759 -0.0032067131 
 1220000      4880000    9846.4665   -34390.769    275.25085 -0.016604685   -24544.302    1109.3497   -10.189441   0.86907586   0.87364811   -10.263687    195.07287    194.77963  0.019231739 
 1240000      4960000    9888.2154   -34496.218    276.41791  0.002422865   -24608.003    1171.7608    3.8767516    -0.332563  -0.33766032    3.9056134    194.99287    195.10447 -0.014157752 
 1260000      5040000    9804.6747   -34455.392    274.08259  0.031037688   -24650.717    1216.1876    3.8828231  -0.34732621  -0.33839361    3.9129862    194.91287    195.02468 -0.016813449 
 1280000      5120000    9950.8158    -34407.68    278.16786 -0.081792735   -24456.864    1022.7886   -3.7327513   0.33866575   0.33173393   -3.7627349    194.83287    194.72537 -0.032065309 
 1300000      5200000    9855.1237   -34505.991    275.49286  0.020042007   -24650.867    1218.6325   -1.5992515   0.14542715   0.14319912   -1.6122222    194.75287    194.70681 -0.016710901 
 1320000      5280000    9776.4175   -34596.652    273.29268   0.02590919   -24820.235    1383.3802   -3.4782604   0.32526548   0.31406235   -3.5075245    194.67287    194.57266 -0.0096397524 
 1340000      5360000    9889.2972   -34474.211    276.44815  0.073843802   -24584.914    1149.7832   -1.2725543   0.11991378   0.11486377   -1.2833423    194.59287    194.55621  -0.01306699 
 1360000      5440000    9916.7915   -34422.932    277.21674 -0.003294564    -24506.14    1072.8182   -1.8690091   0.17936111    0.1729247   -1.8855419    194.51287    194.45901 0.0078036241 
 1380000      5520000     9886.461   -34455.972    276.36887 -0.0016988806   -24569.511    1134.0183   -3.2364168    0.3104625   0.30937721     -3.26596    194.43287    194.33956 -0.013012449 
 1400000      5600000    9917.5471   -34513.188    277.23786   0.11782073   -24595.641    1159.5738    3.9107799  -0.38464372   -0.3758686     3.947585    194.35287    194.46567 -0.0030608347 
 1420000      5680000    9927.3759   -34569.413    277.51261  0.050898444   -24642.037    1203.7826    9.9603875  -0.98394396  -0.96334639    10.055123    194.27287    194.56017 -0.017636825 
 1440000      5760000    9897.6781   -34542.123    276.68243  0.033489991   -24644.445    1209.0029    7.4229289  -0.73282636  -0.72091237    7.4937722    194.19287    194.40699  0.014265723 
 1460000      5840000    9818.8531   -34657.658    274.47894 0.00050358651   -24838.805    1401.1352    1.3030154  -0.12850849  -0.13017203    1.3157919    194.11287    194.15047 -0.010476254 
 1480000      5920000     9820.422   -34528.228     274.5228  0.012485011   -24707.806     1272.271    2.9927639  -0.30312771  -0.29825664    3.0228263    194.03287    194.11924 0.0033892861 
 1500000      6000000    9838.7384   -34477.709    275.03482 -0.0092478165    -24638.97    1204.1123   -3.3225793   0.34339075     0.336158   -3.3571494    193.95287    193.85696 -0.010974087 
 1520000      6080000    9824.8945   -34537.119    274.64782  0.032380218   -24712.225     1272.712    2.0530392  -0.21341139  -0.21099542    2.0748575    193.87287    193.93216 -0.0032204366 
 1540000      6160000     9799.429   -34574.041    273.93595  0.046058357   -24774.612    1338.3586    3.4096631   -0.3583424   -0.3560551    3.4468808    193.79287    193.89136 -0.017385845 
 1560000      6240000    9915.0816   -34517.135    277.16894  0.027944963   -24602.054    1166.4482   -2.1249442   0.22690273   0.22106479   -2.1484279    193.71287    193.65149 -0.019083357 
 1580000      6320000    9823.3779   -34525.662    274.60543   0.12604985   -24702.284    1266.6486   -1.3806669   0.14781869    0.1474346   -1.3963626    193.63287    193.59298 -0.016432922 
 1600000      6400000    9872.3751     -34468.6    275.97511   0.05434247   -24596.225    1160.9695  -0.36765708  0.039374547  0.039462547  -0.37185935    193.55287    193.54225 -0.0029311987 
 1620000      6480000    9721.4647   -34720.227    271.75652  0.042481896   -24998.763    1562.6128   -1.1249449   0.12368965   0.12313956    -1.138404    193.47287    193.44035  -0.01259165 
 1640000      6560000    9763.5891   -34517.233    272.93407 -0.074255923   -24753.644    1317.9412   -2.2943644   0.25000641   0.25317624   -2.3217901    193.39287    193.32654 0.0092365431 
 1660000      6640000     9769.122   -34549.153    273.08874  0.015567809   -24780.031    1343.9544    2.1219154  -0.23985753  -0.24062833    2.1489436    193.31287    193.37428 -0.0088386528 
 1680000      6720000    9795.3027   -34527.115     273.8206   0.17321303   -24731.812    1294.5173   -2.1297375   0.23945359   0.24227641   -2.1568073    193.23287    193.17125 -0.0071002969 
 1700000      6800000    9832.3321   -34720.856    274.85573  -0.10442879   -24888.524    1454.0245    3.9499433  -0.45419884  -0.46242247    4.0027719    193.15287    193.26724  0.009736585 
 1720000      6880000    9910.9434   -34495.432    277.05325  0.029481992   -24584.489    1148.3957     2.574711  -0.29250038   -0.3006803     2.608659    193.07287    193.14741  0.018677381 
 1740000      6960000    9833.0849   -34519.392    274.87678  0.017073767   -24686.307    1250.5656   -11.028405    1.2834999    1.3135562   -11.180274    192.99287    192.67344 0.0090150149 
 1760000      7040000    9786.8846   -34698.081    273.58528 -0.0019486337   -24911.196      1473.25    5.3277233  -0.61806735  -0.64053789    5.4015675    192.91287    193.06721 0.0034060235 
 1780000      7120000    9852.5456   -34652.823    275.42079  0.047051751   -24800.277    1361.0899   -2.7546208   0.32639066   0.33709422   -2.7942976    192.83287    192.75304 0.0070414314 
 1800000      7200000    9829.0204   -34552.218    274.76316 -0.038127038   -24723.198    1288.8097   -6.5223099   0.78535718   0.81049793    -6.619231    192.75287    192.56376 -0.004123682 
 1820000      7280000    9808.0317   -34529.556    274.17643  0.070625447   -24721.525    1285.1226   -8.8297987    1.0659926    1.1081497   -8.9626827    192.67287     192.4168  0.011188393 
 1840000      7360000    9781.6666   -34664.208    273.43942  0.024388869   -24882.542    1446.4835    -1.146753   0.14136017   0.14478703   -1.1644691    192.59287    192.55961  0.023509624 
 1860000      7440000    9843.6066   -34451.135    275.17091 -0.055868871   -24607.528    1171.9731   -1.3526425   0.16741605   0.17390819   -1.3740138    192.51287    192.47362 -0.0029306107 
 1880000      7520000    9896.1849   -34630.689    276.64069  0.098478402   -24734.504     1297.947    2.2502594  -0.28120806  -0.29201433    2.2864858    192.43287    192.49821  -0.01596082 
 1900000      7600000    9881.2519    -34755.51    276.22325 -0.074239887   -24874.258     1440.376   0.72825353 -0.092134661 -0.095217436   0.74020832    192.35287    192.37403 0.0082132872 
 1920000      7680000    9745.0587   -34453.729    272.41607   0.10187473   -24708.671    1273.1798    2.6967745    -0.346796  -0.35814613    2.7424677    192.27287    192.35123 -0.0088178005 
 1940000      7760000    9890.7294    -34525.94    276.48819   0.14656928   -24635.211    1199.0855   0.50951755 -0.066461136 -0.068809786   0.51842068    192.19287    192.20769 -0.0067394672 
 1960000      7840000    9699.7871   -34404.351    271.15053   -0.0303248   -24704.563    1268.8574   -2.4496744   0.32218754   0.33354682   -2.4931833    192.11287    192.04164  0.014863485 
 1980000      7920000    9896.2875   -34622.897    276.64356 -0.066544806   -24726.609    1291.6422  -0.88544923   0.11556889   0.12199756  -0.90125463    192.03287    192.00713 -0.0031296824 
 2000000      8000000    9700.2421   -34567.402    271.16325  0.033969434   -24867.159    1429.4952    3.2629792  -0.43661453  -0.45675949    3.3235967    191.95287    192.04784 -0.0096815623 
 2020000      8080000    9856.1473   -34765.046    275.52147 -0.054500115   -24908.898    1473.2744   -1.8531436   0.25041639   0.26356815   -1.8884697    191.87287    191.81892 -0.016993015 
 2040000      8160000    9911.8783    -34524.91    277.07939  0.028187503   -24613.032    1176.0611   -3.8942435   0.53215077   0.55143157   -3.9689285    191.79287    191.67948  -0.01400263 
 2060000      8240000    9786.5666   -34606.392    273.57639 -0.070386318   -24819.825    1385.4208   -1.6586439   0.22957547   0.24419325   -1.6921687    191.71287    191.66453 0.0076894248 
 2080000      8320000    9898.6749   -34670.683     276.7103 -0.052722285   -24772.008    1336.0052   -4.8679112   0.67588037   0.71726078   -4.9666726    191.63287    191.49097 -0.015649995 
 2100000      8400000    9784.3824   -34621.712    273.51534  0.023711316    -24837.33    1399.4722    4.8560027  -0.67191907  -0.72342692    4.9553591    191.55287    191.69446 0.0062780865 
 2120000      8480000    9743.8015   -34745.144    272.38093 -0.00025803616   -25001.343    1565.7087    2.6818921  -0.37943897  -0.40448951    2.7386367    191.47287    191.55112  0.022448337 
 2140000      8560000    9798.7233   -34714.078    273.91622  0.063354784   -24915.355    1477.9538     5.992275  -0.84405652  -0.91568425    6.1203161    191.39287    191.56774   -0.0198401 
 2160000      8640000    9716.7834   -34613.893    271.62565 -0.010429532    -24897.11    1463.3015  -0.37157269  0.052670085  0.057370016  -0.37964684    191.31287    191.30203 -0.037911126 
 2180000      8720000    9822.8186   -34724.933    274.58979  0.017868462   -24902.114    1465.2557     3.655699  -0.51317424  -0.56655278    3.7347644    191.23287    191.33959  0.019983508 
 2200000      8800000    9792.3225   -34519.941    273.73729  0.010179747   -24727.618    1295.1183    0.0684408 -0.009984076 -0.010755495  0.069996468    191.15287    191.15488  0.011774586 
 2220000      8880000    9840.7135   -34714.618    275.09003 -0.0073839551   -24873.904    1441.3696    4.6964994  -0.68016349  -0.75378108    4.8049886    191.07287    191.21016 -0.00072637528 
 2240000      8960000    9908.2833   -34868.147    276.97889 -0.059397463   -24959.864    1521.6477    2.9288612  -0.43074096  -0.47377661    2.9980376    190.99287    191.07854 -0.0012926946 
 2260000      9040000    9700.7116   -34807.535    271.17638  -0.11642431   -25106.823    1670.5742    2.6361302  -0.39255056  -0.42784479    2.6993202    190.91287       190.99 -0.014171301 
 2280000      9120000    9844.6872   -34606.723    275.20111 -0.0050934228   -24762.036    1326.6679   -5.0573135   0.76201113   0.83407757   -5.1819655    190.83287    190.68482 -0.0095210348 
 2300000      9200000    9710.6659    -34730.71    271.45464 0.0098525266   -25020.044    1583.4484    2.4196168  -0.36493332  -0.40038994    2.4795229    190.75287    190.82372 0.0047871806 
 2320000      9280000    9946.8991   -34721.954    278.05837 0.0013855216   -24775.055    1337.8196    2.7860154  -0.42552348  -0.46016545    2.8556443    190.67287    190.75447 -0.021931522 
 2340000      9360000    9773.4921   -34557.262     273.2109 -0.034966341    -24783.77    1346.5966    7.3994937   -1.1520599   -1.2455758    7.5915222    190.59287    190.80978 -0.023905277 
 2360000      9440000    9904.3593   -34623.216     276.8692  0.044998361   -24718.857    1283.5801   -2.9331217   0.46032898   0.50486706   -3.0116435    190.51287    190.42683 -0.0067901597 
 2380000      9520000    9799.9447   -34806.593    273.95037 -0.016109645   -25006.648    1570.9912    -1.946739    0.3061832   0.33530411   -1.9989922    190.43287    190.37576 -0.0013255243 
 2400000      9600000     9788.097   -34637.912    273.61917  0.054764361   -24849.815    1413.0163   -4.1511631   0.65755923   0.71832168   -4.2638627    190.35287    190.23105 -0.010150527 
 2420000      9680000    9806.8419   -34692.061    274.14317  0.030638239   -24885.219    1445.6165    5.6511308  -0.90635948  -0.98991507    5.8083301    190.27287    190.43883 -0.018105989 
 2440000      9760000    9812.0187   -34631.648    274.28789 -0.065998519   -24819.629    1385.9937    1.7535578   -0.2830064  -0.30855047     1.802848    190.19287    190.24439 -0.023102214 
 2460000      9840000    9806.0917   -34867.643     274.1222  0.053894536   -25061.551    1625.8321   -3.5424437   0.57785707   0.62907327   -3.6439757    190.11287    190.00876 -0.0076272157 
 2480000      9920000    10055.511   -34726.369    281.09455 -0.069694894   -24670.857    1236.2584    1.1697043  -0.19229393  -0.21066034    1.2039779    190.03287    190.06728  -0.01110583 
 2500000     10000000    9924.8863   -34689.804    277.44302   0.19220407   -24764.918     1324.148    3.1658075  -0.52289701  -0.56885696    3.2587354    189.95287    190.04598 -0.0076397932 
 2520000     10080000    9885.9215   -34750.662    276.35379  0.054467565   -24864.741    1426.7854    9.8849453   -1.6628222   -1.7906461    10.182511    189.87287    190.16381 -0.011299452 
 2540000     10160000    9865.8326   -34792.308    275.79222  0.094083773   -24926.475     1485.647   -5.4302786   0.92665271   0.99424283    -5.597779    189.79287    189.63294 -0.0030511054 
 2560000     10240000    9748.0325   -34634.471     272.4992 -0.030856387   -24886.439    1449.4236    -1.217557   0.20822922   0.22641066    -1.255813    189.71287      189.677 -0.014754142 
 2580000     10320000    9843.0618   -34825.293    275.15567  0.037661531   -24982.231    1546.1384   -1.6613095   0.28618344   0.31266878   -1.7145296    189.63287    189.58389  0.015130698 
 2600000     10400000    9755.6871    -34722.56    272.71318 -0.0053765099   -24966.873    1531.8032   -1.7958196   0.31275704   0.34090651   -1.8544547    189.55287    189.49989 -0.0026203218 
 2620000     10480000     9825.292   -34892.674    274.65893 0.0028766203   -25067.382    1627.5731  -0.12987922  0.022824154  0.024721426  -0.13416669    189.47287    189.46904 -0.010142671 
 2640000     10560000    9835.7278   -34723.063    274.95066  -0.03516108   -24887.336    1452.2076   -4.5825198   0.81247865   0.87593625    -4.735702    189.39287    189.25757 0.0083073966 
 2660000     10640000    9879.4332   -34910.024    276.17241  0.094287051   -25030.591    1592.9322   0.39631316 -0.070534132 -0.076818031   0.40980507    189.31287    189.32459 -0.004007112 
 2680000     10720000    9856.7152   -34821.958    275.53735 -0.030302123   -24965.243    1529.2784    -1.763366   0.31476329   0.34467168   -1.8240982    189.23287    189.18076 -0.020328128 
 2700000     10800000     9855.105   -34758.814    275.49234 -0.031698103   -24903.709    1464.8545    -3.667956   0.66222576   0.72151313    -3.796449    189.15287    189.04441  0.015244213 
 2720000     10880000    9781.9397   -34798.947    273.44705  0.018231652   -25017.007    1579.8337   -5.5049623   0.99511707    1.0970117   -5.7007283    189.07287       188.91 0.0045360041 
 2740000     10960000    9758.4469    -34649.53    272.79033  0.052375732   -24891.084    1455.7575    5.9842271   -1.0985085   -1.2014268    6.2017031    188.99287    189.17007 -0.027066219 
 2760000     11040000    9909.6938   -34754.115    277.01832  0.017629561   -24844.421    1407.1854   -6.8426026    1.2758147    1.3837897   -7.0967448    188.91287    188.71011 -0.0067202376 
 2780000     11120000    9879.4343   -34910.149    276.17244 -0.0038328407   -25030.715    1590.6496    11.138121   -2.0720571   -2.2767365    11.555721    188.83287    189.16304  0.011311262 
 2800000     11200000     9854.235   -34729.496    275.46801   0.13192229   -24875.261     1439.339   0.48768667 -0.090888801 -0.099402917   0.50594466    188.75287    188.76733 -0.015207734 
 2820000     11280000    9784.9057   -34704.831    273.52996  -0.05248874   -24919.926    1483.8563  -0.73690772   0.13951624    0.1526021  -0.76536604    188.67287    188.65101   0.01513123 
 2840000     11360000    9814.3615   -34830.352    274.35338 0.0034173526   -25015.991    1578.1953    2.9703349  -0.56718889  -0.61686572    3.0862786    188.59287    188.68106 -0.011250059 
 2860000     11440000    9761.2646   -34782.475    272.86909 0.0020434232   -25021.211    1584.2007   -2.3680988   0.45693124    0.4950653   -2.4620658    188.51287    188.44253 -0.019332351 
 2880000     11520000    9946.7771   -34968.163    278.05496 -0.0010274511   -25021.386    1583.6456    1.4815226  -0.28582204  -0.31558343    1.5414916    188.43287    188.47692 -0.027851012 
 2900000     11600000    9898.9394   -35044.851    276.71769 -0.075901515   -25145.911    1708.4538    5.0796228   -1.0002895   -1.0866745    5.2899913    188.35287    188.50402 0.0036654484 
 2920000     11680000    9994.4767   -34857.205    279.38837 -0.014716715   -24862.728    1425.2185    -4.769507   0.94448484    1.0307607   -4.9701827    188.27287    188.13087 -0.023899923 
 2940000     11760000    9860.6302   -34748.545    275.64679  0.075743629   -24887.915    1451.3339   -1.2164082   0.24214234    0.2660185   -1.2684825    188.19287    188.15664 -0.001492807 
 2960000     11840000    9788.2916   -34883.218    273.62461 -0.070838805   -25094.926    1657.7018    5.1507315   -1.0429635   -1.1425968    5.3780419    188.11287    188.26654 0.0010816716 
 2980000     11920000    9887.0925   -34918.285    276.38652 -0.067100138   -25031.193     1592.379   -4.8100606   0.97648656    1.0746324   -5.0244446    188.03287    187.88932 0.0093820496 
 3000000     12000000     9805.008    -34931.99    274.09191 -0.048007139   -25126.981    1689.5521   -5.0039224    1.0208528    1.1252423   -5.2294885    187.95287    187.80346 -0.0027996819 
 3020000     12080000    9847.3073   -34695.395    275.27435 0.0083855297   -24848.088    1409.0799   -1.7327831    0.3576736    0.3906871   -1.8119338    187.87287    187.82111 -0.032927585 
 3040000     12160000    9893.8671   -34662.116     276.5759  0.042721021   -24768.249    1330.3041    1.2374147  -0.25691514  -0.28276037    1.2950498    187.79287    187.82988 -0.005889873 
 3060000     12240000    9779.4224   -34987.992    273.37668  0.058847201   -25208.569    1767.3585   -9.8890681    2.0865536    2.2823952   -10.361308    187.71287    187.41684 -0.010719182 
 3080000     12320000    9805.6091   -34694.969    274.10871  0.063692618    -24889.36    1452.2269   -2.9504396   0.62622297   0.68426198   -3.0928083    187.63287    187.54451 -0.012676913 
 3100000     12400000    9801.6123   -34578.144    273.99698 -0.018660229   -24776.532    1340.1772  -0.90652843   0.19461877   0.21047503  -0.95077337    187.55287    187.52571  0.035558901 
 3120000     12480000    9812.3161   -34758.604     274.2962   0.01709956   -24946.288    1510.6732    -2.420596   0.52277364   0.56959196   -2.5410652    187.47287    187.40028  0.021919307 
 3140000     12560000    9811.9023   -34683.403    274.28463  0.045195451     -24871.5    1434.6777    2.0660199  -0.44887578  -0.49048506    2.1703694    187.39287    187.45489 -0.011016144 
 3160000     12640000    9922.0106   -34723.618    277.36263 -0.026343158   -24801.608    1366.1165    4.9447565   -1.0782792   -1.1800469    5.1967118    187.31287    187.46136 -0.0093555273 
 3180000     12720000    9905.2417   -34798.278    276.89387  0.071333697   -24893.036    1453.3441   -3.2254915   0.71676996   0.77814985    -3.394565    187.23287    187.13589 -0.012154656 
 3200000     12800000    9883.4332   -34792.815    276.28423  0.053423781   -24909.382      1471.96  -0.68479377    0.1520484   0.16544011  -0.72071607    187.15287    187.13229 0.0047730913 
 3220000     12880000    9709.0379   -34769.958    271.40913 -0.019201365    -25060.92    1625.3438   0.52532515  -0.11843114  -0.12889291   0.55371999    187.07287     187.0887 0.0019543954 
 3240000     12960000    9898.0388   -34692.996    276.69252 -0.021842059   -24794.957    1358.5883  -0.96761169   0.22002706   0.24041978    -1.021022    186.99287    186.96371 0.0081192495 
 3260000     13040000    9777.4088   -34750.841    273.32039 -0.038807379   -24973.433    1537.5211   -7.3356369     1.679795    1.8298028   -7.7447697    186.91287     186.6916 -0.019762362 
 3280000     13120000    9784.1578   -34878.066    273.50906 -0.083813358   -25093.908    1656.1168    2.2929204  -0.53063261   -0.5760645    2.4229951    186.83287    186.90211  0.011954104 
 3300000     13200000    9884.0373   -34652.681    276.30111  0.036017651   -24768.643    1331.8237  -0.94823561    0.2200341   0.23945356   -1.0024489    186.75287    186.72424  0.009854473 
 3320000     13280000    9887.8515   -34806.834    276.40774  0.044942954   -24918.983    1480.7084  -0.91072753   0.21131416   0.23092646  -0.96301887    186.67287    186.64536  0.005309741 
 3340000     13360000    9782.4922   -34882.408     273.4625  0.085152575   -25099.916    1658.6156    1.8185635  -0.42967378  -0.46488339    1.9255932    186.59287     186.6479 -0.013630713 
 3360000     13440000    10031.713   -34882.866    280.42928  0.036223672   -24851.153    1413.4705    1.3915644  -0.33099757  -0.35927032    1.4748173    186.51287    186.55502 0.0057973748 
 3380000     13520000    9827.1956   -34726.857    274.71215  0.029114872   -24899.661    1462.2836    2.4933853  -0.59904856  -0.64859517    2.6450908    186.43287    186.50845 0.0058825202 
 3400000     13600000    9869.9639    -34908.36     275.9077 -0.035498356   -25038.396     1600.982  -0.45055399   0.10915812   0.11791636  -0.47834994    186.35287    186.33921 0.0040682509 
 3420000     13680000    9936.7474   -34862.756    277.77459 -0.050607414   -24926.008    1488.3815     1.871609  -0.45455799  -0.49630136     1.988934    186.27287     186.3297 0.0090295093 
 3440000     13760000    9941.3542   -34893.172    277.90337 -0.036918337   -24951.818    1514.0617   -1.9897215   0.49303619   0.52662245   -2.1164611    186.19287    186.13241 -0.0029211094 
 3460000     13840000    9995.1963   -34860.561    279.40848  0.053621471   -24865.364    1428.9128   -4.9725569    1.2351812    1.3333104   -5.2943093    186.11287    185.96161 -0.0086950988 
 3480000     13920000    9798.3455   -34948.558    273.90566 -0.057241172   -25150.212    1711.7999    -2.793257   0.69668807    0.7567332   -2.9766263    186.03287    185.94783 -0.033197618 
 3500000     14000000    9848.1167    -34866.12    275.29698   0.03761864   -25018.004    1579.1744  -0.79464058    0.1999406   0.21674649  -0.84759007    185.95287    185.92866  -0.00764681 
 3520000     14080000    9907.6876    -35113.89    276.96224  0.019989836   -25206.202    1767.2187    5.1910339   -1.3290565   -1.4280325    5.5454938    185.87287    186.03132 -0.0049106882 
 3540000     14160000    9941.3227   -34897.724    277.90249  0.029626723   -24956.402    1517.6858   -1.9068379   0.49507244   0.52825006   -2.0396509    185.79287     185.7346 -0.0096606638 
 3560000     14240000    9805.9739   -34803.199    274.11891  0.091642104   -24997.225     1559.997    1.3394461  -0.34929296  -0.37359668    1.4337698    185.71287    185.75384 -0.0032825315 
 3580000     14320000    9778.3383    -34936.96    273.34638 -0.025220342   -25158.622    1718.9162      -5.4029    1.4182804    1.5212033   -5.7893788    185.63287    185.46747 -0.018839598 
 3600000     14400000    9754.9295   -34883.127      272.692  0.023660219   -25128.197    1689.0978    7.0368118   -1.8599174   -1.9963963    7.5472916    185.55287    185.76851 -0.0085815426 
 3620000     14480000    9832.6123    -34900.13    274.86357  0.094469085   -25067.517    1627.3525    2.0388972  -0.54123531  -0.58388782    2.1888267    185.47287    185.53542 -0.014290409 
 3640000     14560000    9767.5427     -34912.9    273.04459 -0.0088879898   -25145.358    1706.1533      9.21057   -2.4502876   -2.6520715    9.8930275    185.39287    185.67554  0.024318387 
 3660000     14640000    9852.6682   -34774.054    275.42421  0.043309107   -24921.386    1479.8625    3.4935323   -0.9408039   -1.0174593    3.7583378    185.31287    185.42026 -0.010904823 
 3680000     14720000    9772.5266   -34840.693    273.18391 -0.030568454   -25068.167    1629.5232     1.211932   -0.3314651  -0.35510124    1.3056589    185.23287    185.27018  0.022888511 
 3700000     14800000    9659.0397   -34812.538    270.01147  0.096201534   -25153.499    1713.9377    11.751828   -3.2080425   -3.4649943    12.665038    185.15287    185.51474 0.0013756887 
 3720000     14880000    9940.2243   -34962.324    277.87178   0.07680726   -25022.099    1583.8434   -2.1862715   0.60374681   0.65324683   -2.3603018    185.07287    185.00544 -0.0095226617 
 3740000     14960000    9888.4262   -35045.223     276.4238 -0.064089604   -25156.797    1716.5696  -0.95631554   0.26680045   0.28924226   -1.0341097    184.99287    184.96333 -0.027072658 
 3760000     15040000    9994.4377    -34937.58    279.38728  0.071558917   -24943.142    1504.3144   -2.1490932   0.60622267   0.64928858   -2.3254426    184.91287    184.84644 -0.0046990302 
 3780000     15120000    9823.3245   -34884.864    274.60393 -0.088027539    -25061.54    1624.7833   -2.7239514    0.7729051   0.83376367   -2.9516868    184.83287    184.74854   0.01062058 
 3800000     15200000    9981.4065    -34836.64      279.023 -0.069359738   -24855.233    1420.1106   -1.7551341   0.50260537   0.54010337   -1.9038959    184.75287    184.69848 -0.0032988884 
 3820000     15280000    9759.2034   -34776.822    272.81147  0.056152472   -25017.618    1578.1036   -10.998084    3.1595486    3.3994834   -11.937214    184.67287    184.33181 -0.011107738 
 3840000     15360000    9877.3214   -35119.727    276.11338  0.083523391   -25242.406    1798.8518   -2.6200155   0.75573926   0.81630454   -2.8463971    184.59287    184.51155 -0.038833233 
 3860000     15440000    9724.7818   -34944.919    271.84924 -0.056161544   -25220.138    1781.0631     2.290024  -0.67007092  -0.72267041    2.4930819    184.51287    184.58411  0.012318586 
 3880000     15520000    9873.0266   -35057.413    275.99332  0.013534974   -25184.386    1743.0561   -5.9514701    1.7518517    1.8882517   -6.4849422    184.43287    184.24759 -0.040283669 
 3900000     15600000    9939.4547   -34999.764    277.85027 -0.089917432   -25060.309    1622.4932   -2.1214224   0.62781674   0.67496592   -2.3130426    184.35287    184.28679 -0.012248019 
 3920000     15680000    9852.9797   -34859.814    275.43292 -0.0040774212   -25006.835    1569.2292   -2.1019207   0.62756401     0.672678   -2.2944287    184.27287    184.20732 0.00051368492 
 3940000     15760000    9821.8763   -34874.711    274.56345 -0.085613012   -25052.834    1615.6572   -3.1710774   0.95776887    1.0220168   -3.4666369    184.19287    184.09383 0.0026020447 
 3960000     15840000    9805.9885   -34788.953    274.11932 -0.042444796   -24982.964    1543.8903    4.9145499   -1.4903736   -1.6039325    5.3802057    184.11287     184.2666 0.0046455224 
 3980000     15920000    9882.5315   -34853.449    276.25902 -0.060594533   -24970.918    1537.2382     3.715583   -1.1393133   -1.2239516    4.0745121    184.03287    184.14929  0.005100933 
 4000000     16000000    10033.607   -34870.276    280.48222 -0.017319939   -24836.669    1398.7029   -4.7625985    1.4667618    1.5727035   -5.2256225    183.95287    183.80357 -0.018411914 
 4020000     16080000     9676.528   -34878.916    270.50034 -0.043298254   -25202.388    1761.2941    2.8308705  -0.88109121  -0.94183458    3.1108202    183.87287    183.96176   0.01846014 
 4040000     16160000    9950.4032   -34845.337    278.15633  0.030665135   -24894.934    1456.9584    0.5773005  -0.18001957  -0.19425816   0.63515285    183.79287    183.81103 -0.028240698 
 4060000     16240000    10009.121   -34812.168    279.79775 -0.030771852   -24803.047    1364.1551  -0.16973701  0.053245582  0.057580129  -0.18697918    183.71287    183.70754 -0.0034090367 
 4080000     16320000    9925.7128   -34832.502    277.46613  0.071179847   -24906.789    1468.3931  -0.84093374   0.26589912   0.28717294  -0.92754525    183.63287    183.60638 -0.0014152659 
 4100000     16400000    9820.4492   -35033.412    274.52356  0.061500639   -25212.963    1773.8696  0.057078497 -0.018156383 -0.019651371  0.063037969    183.55287    183.55468 -0.0097630253 
 4120000     16480000    9751.7676   -34979.933    272.60361  0.043483507   -25228.165    1786.8136   -3.5457558    1.1368865    1.2286145   -3.9210188    183.47287    183.36085 -0.025070204 
 4140000     16560000    9917.6386   -34930.314    277.24042 -0.020539709   -25012.675    1574.4044   -3.1303688    1.0171881    1.0915862   -3.4677717    183.39287     183.2938 -0.010889094 
 4160000     16640000    9853.3206   -34912.461    275.44245  0.024118923    -25059.14    1619.9243      3.50519   -1.1397755   -1.2329886     3.886606    183.31287    183.42392 -0.028803542 
 4180000     16720000    9849.7082   -34932.611    275.34147   0.11520024   -25082.903    1645.1333  -0.25935243  0.085023734  0.092182673  -0.28808048    183.23287    183.22465 0.0038878901 
 4200000     16800000    9848.6286   -34834.152    275.31129 -0.0030829963   -24985.524    1546.2549   -5.6529988    1.8633083    2.0277022   -6.2880752    183.15287    182.97322  0.020326174 
 4220000     16880000    9846.8171   -34950.268    275.26065    0.1548851   -25103.451    1663.0175    2.7209234  -0.90570541   -0.9796919    3.0304327    183.07287    183.15946 -0.0073679136 
 4240000     16960000    10063.516   -34992.732    281.31831  0.041805022   -24929.216    1488.0654    5.2737274    -1.764352   -1.9052785    5.8783693    182.99287    183.16083 -0.033086628 
 4260000     17040000    9770.6057   -35113.963    273.13022 -0.085662875   -25343.357     1906.129    2.3186985  -0.78198648  -0.84732299    2.5895601    182.91287    182.98687 0.0060183688 
 4280000     17120000    9902.3478   -35016.502    276.81297 -0.019684138   -25114.154    1673.5325   0.60956687  -0.20731987   -0.2239509   0.68169444    182.83287    182.85236  0.024930166 
 4300000     17200000    9861.9393   -34798.661    275.68338  0.058571024   -24936.722    1496.9755  -0.66017568   0.22484835    0.2436944  -0.73876632    182.75287    182.73177  -0.01763552 
 4320000     17280000     9763.539   -34762.486    272.93267  -0.02607177   -24998.947    1562.7761     1.313154  -0.44995914  -0.49081266    1.4723226    182.67287    182.71494 -0.0056606542 
 4340000     17360000    9701.8563   -34932.113    271.20838  0.097676494   -25230.257    1789.6046  -0.29676601   0.10241206   0.11167377  -0.33321064    182.59287    182.58336 -0.025301311 
 4360000     17440000    9704.5595   -34902.252    271.28394 -0.038256404   -25197.693    1759.1391    4.1153089   -1.4357897   -1.5503132    4.6260924    182.51287    182.64505  0.020149802 
 4380000     17520000    9910.1819   -35101.465    277.03197  0.055910399   -25191.283    1745.7105    10.269515   -3.5825709   -3.9290862    11.564406    182.43287    182.76329 -0.018135661 
 4400000     17600000    9893.2676   -34937.033    276.55914 -0.067498734   -25043.766    1606.5441    1.2843669  -0.45359232  -0.49116922    1.4479612    182.35287    182.39425 -0.0099605979 
 4420000     17680000    9783.5609   -34921.814    273.49237 -0.015671241   -25138.253    1700.0993   -1.1688126   0.41488439   0.45098914   -1.3197132    182.27287    182.23517 -0.0071093428 
 4440000     17760000    9838.7314   -35099.932    275.03462   0.12063405   -25261.201    1821.2946   -3.6121226    1.2949253    1.4071166   -4.0870818    182.19287     182.0761 -0.027233635 
 4460000     17840000    9816.8301   -34951.428    274.42239 -0.061659948   -25134.597    1696.2871  -0.25843351  0.093391603   0.10102495   -0.2927728    182.11287    182.10451 -0.00048043094 
 4480000     17920000    9857.8927   -35010.996    275.57026   0.07951054   -25153.103    1713.7596    1.4912557  -0.54238848  -0.58838968     1.692404    182.03287    182.08123 0.0038434851 
 4500000     18000000    9901.1936   -34979.302    276.78071  0.021253446   -25078.109    1636.1422   -4.7007188    1.7116292    1.8718656   -5.3413774    181.95287    181.80027  -0.01736044 
 4520000     18080000    9837.0777   -34966.645    274.98839 -0.012809771   -25129.568    1690.1467   -3.8070483    1.3914216    1.5205137   -4.3291607    181.87287    181.74919 2.389575e-05 
 4540000     18160000    9831.9877   -34923.112    274.84611 -0.024162447   -25091.124    1651.4217   -1.9189883   0.70701317   0.76989532   -2.1852054    181.79287    181.73044 -0.011695157 
 4560000     18240000    9795.5185   -34893.284    273.82664   0.02014281   -25097.766    1658.9166   0.85495014  -0.31605969    -0.345644   0.97483498    181.71287    181.74073 -0.011471089 
 4580000     18320000    9775.8022   -34870.344    273.27548 0.0066939461   -25094.542    1656.0264   0.79703666  -0.29591166  -0.32475331    0.9101076    181.63287    181.65888 -0.020453103 
 4600000     18400000     9750.473   -34949.359    272.56742  -0.11217083   -25198.886    1757.8608   -5.0703541    1.8993138    2.0732018   -5.7977624    181.55287    181.38723 0.0047841599 
 4620000     18480000    9871.4063   -34853.978    275.94802  0.020014637   -24982.572    1543.0564   -1.1001892   0.41647976   0.45377048   -1.2608645    181.47287    181.43685 -0.010573117 
 4640000     18560000     9841.357   -35033.511    275.10802  0.069017931   -25192.154    1750.5416   -3.2342552    1.2264685     1.341691   -3.7100898    181.39287    181.28688 -0.014972315 
 4660000     18640000    9767.4663   -35019.277    273.04246  0.010828676   -25251.811    1810.6804    3.7015929   -1.4090785   -1.5436307    4.2508925    181.31287    181.43433   0.02179157 
 4680000     18720000    9751.9544    -34917.62    272.60883  -0.06216596   -25165.666     1729.305   -2.4201051   0.92653081    1.0092099   -2.7809841    181.23287    181.15342  0.002783086 
 4700000     18800000     9922.929   -35064.006     277.3883 -0.088258454   -25141.077    1702.5836    1.9817406  -0.76226829  -0.83407895    2.2812357    181.15287    181.21806 0.0016705369 
 4720000     18880000     9894.298   -34954.877    276.58795 -0.014291974   -25060.579    1620.8483   -1.7916872   0.69501888   0.76067895   -2.0668398    181.07287    181.01383 -0.029481465 
 4740000     18960000    9767.4879   -35042.249    273.04306  0.011033745   -25274.761    1833.1277   -6.2506737    2.4314408    2.6682508   -7.2181984    180.99287    180.78664 0.0084698551 
 4760000     19040000    9802.7576   -34928.561      274.029  0.056284684   -25125.803    1684.2714     1.684115  -0.65877858  -0.72550879    1.9484854    180.91287    180.96855  0.016508568 
 4780000     19120000    9938.2981   -34992.013    277.81794  0.061552772   -25053.715    1612.4399    1.5657596  -0.61636989  -0.67720941    1.8138709    180.83287     180.8847 0.0096881347 
 4800000     19200000    9894.6947   -34966.799    276.59903  0.072057742   -25072.105    1630.0271    5.2763342     -2.07426   -2.2929863    6.1155575    180.75287    180.92761 0.0039365471 
 4820000     19280000    9850.6896   -34926.953     275.3689 -0.032870843   -25076.264     1635.101   -1.3127886   0.52159937   0.57864835   -1.5265365    180.67287    180.62926 -0.011236854 
 4840000     19360000    9833.5621   -34951.526    274.89012 -0.020049205   -25117.964    1679.1996    2.8313017   -1.1214148   -1.2466763     3.290599    180.59287     180.6869 -0.025912067 
 4860000     19440000    9738.8789   -34979.339    272.24332 -0.058413466    -25240.46    1798.1909    4.6504487   -1.8647347   -2.0668292    5.4199346    180.51287    180.66773 -0.016948635 
 4880000     19520000    9824.7059   -35048.262    274.64255 -3.251785e-05   -25223.556    1780.4517   -0.6792996   0.27340953   0.30291661  -0.79243876    180.43287    180.41024 0.0022097182 
 4900000     19600000    9800.6744   -35072.863    273.97076  0.011519318   -25272.189    1827.2673    3.0759809   -1.2401144   -1.3890991    3.5957111    180.35287    180.45561 -0.017027183 
 4920000     19680000    9802.3319   -35068.041     274.0171 -0.029947739   -25265.709    1825.7711    4.4075392   -1.7858102   -2.0059277     5.161324    180.27287    180.42034 0.0021490993 
 4940000     19760000    9858.5854   -35122.918    275.58963 -0.012363888   -25264.333    1821.6679   -1.9208017   0.78584736    0.8758096   -2.2525713    180.19287    180.12852  0.012867663 
 4960000     19840000    9707.1866    -34947.03    271.35738  0.012891186   -25239.844    1801.7715   -1.6010243   0.65593515   0.73552017   -1.8800318    180.11287    180.05916 -0.022885429 
 4980000     19920000    9803.5867   -34875.372    274.05218 -0.079681415   -25071.785    1634.4429     4.149347   -1.7122694   -1.9249068    4.8840776    180.03287    180.17242 -0.0024167963 
 5000000     20000000    9782.6105   -34829.423     273.4658  0.049646532   -25046.813    1609.3438    1.0669179  -0.44352029   -0.4989398    1.2585567    179.95287    179.98884 -0.020076547 
 5020000     20080000    9774.2931    -35101.39     273.2333  0.099522356   -25327.097    1884.7921    3.6567603   -1.5338874   -1.7153532    4.3205489    179.87287    179.99632  0.016518352 
 5040000     20160000    9962.7341   -35054.295    278.50103  -0.02120257   -25091.561    1650.9456   0.92863608  -0.38909227  -0.43763512    1.0978535    179.79287    179.82425 -0.0044204649 
 5060000     20240000    9796.1863   -34984.387     273.8453  0.049165809   -25188.201    1747.7386   0.54919311  -0.23178342  -0.26107673   0.65076699    179.71287    179.73147  0.001202013 
 5080000     20320000    9958.5325    -35084.37    278.38358 -0.019910082   -25125.838    1686.2917     4.882273   -2.0807795   -2.3414862    5.8007578    179.63287    179.79861  0.029038275 
 5100000     20400000    9939.7357   -34984.007    277.85813  -0.12674266   -25044.272     1604.307    4.8352103    -2.071195   -2.3273388    5.7520095    179.55287    179.71722  0.025814566 
 5120000     20480000    9721.8257   -35092.771    271.76661 -0.074055869   -25370.945    1929.6979   -3.0347108    1.3074483    1.4744695   -3.6184183    179.47287    179.36949 0.0050768177 
 5140000     20560000    9873.4449   -34891.888    276.00501   0.01903924   -25018.443    1576.6163   -1.2590224   0.54188323   0.61212195   -1.5011556    179.39287    179.34999 0.0090272984 
 5160000     20640000    9824.0888   -34868.775     274.6253 -0.016919911   -25044.687    1607.4974   -3.0228226    1.3172969    1.4891406   -3.6180475    179.31287    179.20951 -0.032143697 
 5180000     20720000    9971.4968   -34994.182    278.74598  0.050060725   -25022.685    1579.1999   -11.124807    4.8538459    5.4780581   -13.316541    179.23287    178.85241 -0.011234818 
 5200000     20800000    9877.7477   -35287.319    276.12529  0.091373858   -25409.571    1965.2497   -7.4603557    3.2637494    3.6968347   -8.9429052    179.15287    178.89737  0.021379166 
 5220000     20880000    9820.4218   -34892.259    274.52279  0.035427138   -25071.838    1633.3603    2.4790454   -1.0907549      -1.2281    2.9738261    179.07287    179.15784  0.016179256 
 5240000     20960000    9936.0614    -35116.12    277.75541  0.074761006   -25180.059    1739.2951  -0.51785205   0.22979881   0.25793013  -0.62249996    178.99287    178.97509  0.007898287 
 5260000     21040000    9762.4055   -34997.981    272.90099  0.016820806   -25235.575    1796.5347    1.9625719  -0.87549781   -0.9860801    2.3644321    178.91287    178.98043  0.024100969 
 5280000     21120000    9774.1275   -34941.882    273.22867 -0.017414375   -25167.755    1728.7966   -1.6250549   0.72969426    0.8233259   -1.9624278    178.83287    178.77681  0.012121101 
 5300000     21200000    9833.2453   -35042.669    274.88126   0.03303166   -25209.424    1767.9587    5.2280064   -2.3618133   -2.6508677    6.3195975    178.75287    178.93344     0.011383 
 5320000     21280000    9850.5166   -34998.685    275.36407  0.048839892   -25148.168    1708.1061  -0.96840814    0.4409154   0.49451983   -1.1733587    178.67287    178.63935 0.0088181406 
 5340000     21360000    9790.8908   -34913.539    273.69727  -0.11186975   -25122.648    1684.5318   -1.3602188   0.62218362   0.70162094    -1.652144    178.59287    178.54567 -0.025006311 
 5360000     21440000    9835.2036    -34988.28      274.936  0.056008206   -25153.076    1712.2664    2.0259016  -0.93373811   -1.0517143    2.4662212    178.51287    178.58334 -0.015815124 
 5380000     21520000    9899.6927   -35158.758    276.73875  0.006220597   -25259.065    1819.0116     0.135334 -0.062228359 -0.070472879   0.16478497    178.43287    178.43759 0.0069698523 
 5400000     21600000    9821.7583   -34978.155    274.56015  0.027373594   -25156.397    1713.3667   -3.2203815    1.5050018     1.685995   -3.9342683    178.35287    178.24047 -0.028470316 
 5420000     21680000    9780.7016   -34997.053    273.41244  0.025891686   -25216.351    1776.8577  -0.62743441   0.29447212   0.33076158  -0.76797851    178.27287    178.25094 -0.0009707155 
 5440000     21760000    9887.3011   -34902.864    276.39235 -0.089243852   -25015.563    1578.2833   -5.2872703    2.4861239    2.8000412   -6.4789096    178.19287    178.00777  0.023075702 
 5460000     21840000    9850.1841   -35060.237    275.35477 -0.084814392   -25210.052    1770.5272    1.1068581  -0.52492438   -0.5895444     1.359501    178.11287    178.15172  0.037424733 
 5480000     21920000     9832.621   -34905.913    274.86381  0.029160912   -25073.292    1631.7803  -0.69026169   0.32695067   0.36860423  -0.84807253    178.03287    178.00865 -0.0035435369 
 5500000     22000000    9871.1266   -35099.424    275.94021 -0.091434719   -25228.298    1786.7488   -0.3715606   0.17756348     0.199313  -0.45750601    177.95287    177.93981  0.013383267 
 5520000     22080000    9816.8839   -35154.754    274.42389 -0.085616776    -25337.87    1895.2815   -3.0599555    1.4644742    1.6470135   -3.7710298    177.87287    177.76513 -0.0052779293 
 5540000     22160000     9906.095   -35085.752    276.91772   0.20066779   -25179.657    1734.6934    4.5852564   -2.2141725    -2.497284    5.6712929    177.79287    177.95492 -0.018281612 
 5560000     22240000    9846.7347   -35062.747    275.25835 -0.084041575   -25216.012    1777.3804   0.71039379  -0.34771995  -0.38788423   0.88092149    177.71287    177.73805 -0.0021956347 
 5580000     22320000    9785.6145   -35115.645    273.54978 -0.002986187    -25330.03    1888.2563            0            0            0            0    177.63287    177.63294   0.02187624 
 5600000     22400000    9844.0012    -34864.15    275.18193  -0.06906602   -25020.148    1581.3442   -3.1427098     1.546935    1.7310584   -3.9071979    177.55287    177.44124  0.014561424 
 5620000     22480000    9849.5506   -34967.819    275.33706 -0.023317464   -25118.268    1678.6468    3.6787691   -1.8255497   -2.0415393    4.5862683    177.47287    177.60391  0.012949799 
 5640000     22560000    9869.9292   -34907.696    275.90673 -0.012913161   -25037.767     1598.778    5.6048803   -2.7875046     -3.09899     6.984884    177.39287    177.59245  0.016323133 
 5660000     22640000    9869.9533   -34982.967    275.90741  0.043302675   -25113.013    1672.2896    1.4919028  -0.74776285  -0.83547206    1.8662628    177.31287     177.3662 -0.0059150329 
 5680000     22720000    9890.3987   -35076.444    276.47894 -0.039115387   -25186.045    1746.4216   -3.6562723    1.8414135    2.0622528   -4.5838867    177.23287    177.10191 -0.0045207729 
 5700000     22800000    9945.7129   -34991.269    278.02521  0.014082417   -25045.556     1607.383    4.3805531   -2.2254201   -2.4835465    5.5054286    177.15287    177.31018 -0.037929825 
 5720000     22880000    9860.6163   -34997.895     275.6464  -0.05905779   -25137.278     1696.448   0.99421113  -0.50619515  -0.56552912    1.2508047    177.07287    177.10862 -0.0026434412 
 5740000     22960000    9934.6952   -35010.544    277.71722 -0.050195531   -25075.849    1636.2166   -2.9358542    1.5051852     1.676198    -3.700603    176.99287    176.88715   0.01014494 
 5760000     23040000    9816.6689    -35015.88    274.41788   0.11174983   -25199.211     1757.878  -0.73714521    0.3814496   0.42254085  -0.93135794    176.91287    176.88627 -0.024429933 
 5780000     23120000    9856.0684   -34919.171    275.51927 -0.021498583   -25063.102    1622.1995    -0.546196    0.2822672   0.31468078  -0.69067274    176.83287    176.81314 -0.016585771 
 5800000     23200000    9862.4142   -35042.968    275.69666  0.015604555   -25180.554    1739.5845    2.0305881   -1.0599073   -1.1771497    2.5753394    176.75287    176.82646  0.023456437 
 5820000     23280000    9884.4007   -35080.293    276.31128  0.030389232   -25195.892     1754.175    3.6349644   -1.9020063   -2.1145842    4.6154156    176.67287    176.80475 -0.00076203638 
 5840000     23360000    9937.4234   -35122.024    277.79349  -0.06340449   -25184.601    1743.9901   -2.5127306    1.3232138    1.4741701   -3.1996699    176.59287    176.50146 -0.0056357527 
 5860000     23440000    9765.5547   -35128.568    272.98902 -0.051007267   -25363.013    1922.6251    3.3495775   -1.7753923   -1.9685533    4.2716377    176.51287    176.63492 0.0031218418 
 5880000     23520000    9939.3323   -35083.543    277.84685  0.059349895   -25144.211     1700.778    7.4717254   -3.9850507   -4.4001083    9.5429693    176.43287    176.70553 -0.016601617 
 5900000     23600000    9788.2967   -34948.728    273.62475 -0.074294322   -25160.431    1720.9943   -2.5827939    1.3769189    1.5263625   -3.3009866    176.35287    176.25856 0.0016308076 
 5920000     23680000    9873.3025   -35086.625    276.00103   0.11885504   -25213.322     1772.061    -1.992392    1.0718629    1.1864918   -2.5546582    176.27287    176.19989 0.0057227186 
 5940000     23760000     9822.898   -35180.458    274.59201  0.073339638    -25357.56    1915.0807   -2.5314073    1.3748879    1.5075317   -3.2513061    176.19287    176.09998  0.014964619 
 5960000     23840000    9978.9273   -35263.497     278.9537  0.013889419   -25284.569     1843.335   0.29312571  -0.15937279  -0.17574336   0.37710489    176.11287    176.12365 0.0082622699 
 5980000     23920000    9874.2351   -35118.369     276.0271  0.022652929   -25244.133    1801.3787   -7.0872867    3.8766849    4.2823008   -9.1431077    176.03287    175.77165  0.007423721 
 6000000     24000000    9682.2027   -35095.787    270.65897 0.0072894049   -25413.584    1970.6265    1.3233948  -0.72813238  -0.79839799    1.7085052    175.95287    176.00169 -0.006002925 
 6020000     24080000     9882.753   -35294.648    276.26521  0.030419836   -25411.895    1967.1137   -3.4318641    1.8975519    2.0784174   -4.4382669    175.87287    175.74607 0.0029658179 
 6040000     24160000     9822.673   -35067.352    274.58572  0.014171646   -25244.679    1801.0246 -0.040001927  0.022373789  0.024423554 -0.051935061    175.79287    175.79139 -0.0032408792 
 6060000     24240000    9950.2264   -35125.353    278.15138 0.0091389806   -25175.127    1734.2829    2.3808628   -1.3347679   -1.4648297    3.0977151    175.71287    175.80138 -0.0045250851 
 6080000     24320000     9796.712   -35207.777       273.86   0.15487645   -25411.065    1969.3679     2.312235   -1.3031768   -1.4273242    3.0136282    175.63287    175.71898 -0.0042814113 
 6100000     24400000    9745.5393   -35167.215     272.4295 -0.0010608155   -25421.675    1981.1218    2.7342997   -1.5403876   -1.6925861    3.5656747    175.55287    175.65475 0.0062753226 
 6120000     24480000    9798.1882    -35051.28    273.90127 -0.088008493   -25253.091     1811.809   -1.4467187   0.82236056   0.90252463   -1.8930987    175.47287    175.41879 0.0059599968 
 6140000     24560000    9923.2426   -35124.516    277.39707 -0.061400812   -25201.273    1760.9388   -1.1930342    0.6831858   0.75100591   -1.5665514    175.39287    175.34812  0.009029794 
 6160000     24640000    9931.6026   -35206.311    277.63077  -0.19267759   -25274.709     1833.975   -1.0332303   0.59496013   0.65177005   -1.3588033    175.31287    175.27406   0.01565259 
 6180000     24720000    9917.5212   -35091.622    277.23713   0.15648119     -25174.1    1731.5933    1.5362571  -0.89261981  -0.97190149    2.0252033    175.23287    175.29074 -0.0024221951 
 6200000     24800000    9897.5421   -34978.249    276.67863  0.058139416   -25080.707    1640.4313   -3.3957669    1.9704066    2.1532353   -4.4777402    175.15287    175.02494  0.024174857 
 6220000     24880000     9900.783   -35107.343    276.76923 -0.063013817    -25206.56    1765.3075    3.8547674   -2.2542423   -2.4696455    5.1029393    175.07287    175.21868  0.017099792 
 6240000     24960000    9803.7183   -34998.761    274.05585 -0.076670653   -25195.043    1755.3608    2.7972184   -1.6525519   -1.7999028    3.7141632    174.99287      175.099 -0.011088075 
 6260000     25040000     9986.495   -35030.433    279.16525  0.037961981   -25043.938    1601.6605    1.4459426  -0.85522736  -0.93234734    1.9213108    174.91287    174.96777 -0.016202133 
 6280000     25120000    9795.6111   -35129.861    273.82922  0.093453465   -25334.249    1890.8348    3.0667727   -1.8327977   -1.9856247    4.0874133    174.83287    174.94966 -0.0073379747 
 6300000     25200000    9841.4196   -35124.025    275.10977 -0.021719714   -25282.606     1841.571    3.7253108   -2.2387632   -2.4261825    4.9775861    174.75287    174.89509  0.010132215 
 6320000     25280000    9957.2676   -35168.639    278.34821   0.08002378   -25211.372    1768.7379    2.3277097    -1.411149   -1.5264091     3.120817    174.67287    174.76204  0.019364804 
 6340000     25360000    9892.7107    -35002.47    276.54357  -0.11813122   -25109.759    1671.2908    4.2969015   -2.6060032   -2.8251094    5.7650549    174.59287    174.75759 -0.023037659 
 6360000     25440000    9925.5575   -34929.412    277.46178  0.015869966   -25003.854    1563.4076   -4.6247729    2.8268512    3.0494103   -6.2192053    174.51287    174.33519 0.0065141935 
 6380000     25520000    9874.1932   -35058.705    276.02593  0.064143292   -25184.512    1742.4006   0.25358625  -0.15643475  -0.16862939   0.34236485    174.43287    174.44266 0.0058545236 
 6400000     25600000     9765.987   -35181.454    273.00111 -0.022400936   -25415.467    1975.0005    1.5014742  -0.92915714   -1.0004885    2.0294667    174.35287    174.41086 0.0022933161 
 6420000     25680000    9853.5089   -35143.681    275.44772  0.071440008   -25290.172    1848.9253    -1.174077   0.72934396   0.78201307   -1.5880629    174.27287     174.2275  0.012070117 
 6440000     25760000    9878.1125   -35116.091    276.13549  0.052871479   -25237.979     1796.517    2.5771353   -1.6172594   -1.7234513    3.4967755    174.19287    174.29279  0.015193194 
 6460000     25840000    9901.7719   -35012.074    276.79687    0.1131514   -25110.302     1668.805    2.7081136   -1.7039373   -1.8253909    3.6836576    174.11287    174.21813 -0.0003413227 
 6480000     25920000    9739.4456   -35195.354    272.25916  0.042549281   -25455.908    2012.8878    5.0975183   -3.2298119   -3.4475229     6.949949    174.03287    174.23145 -0.0031854838 
 6500000     26000000    9678.6476   -35122.188    270.55959 -0.078365743   -25443.541    2001.0229  -0.55214325   0.35232463     0.375853   -0.7551558    173.95287     173.9313 -0.020795961 
 6520000     26080000    9696.3641   -35156.767    271.05485   0.07649557   -25460.403    2018.0457  -0.96136766   0.61646925   0.65447593    -1.316283    173.87287    173.83527 0.0065433434 
 6540000     26160000    9768.7557   -35107.881     273.0785  -0.10174389   -25339.125    1899.9952    1.0035185  -0.64978204  -0.68927855    1.3799895    173.79287    173.83231 0.0080648713 
 6560000     26240000     9764.638   -35122.505    272.96339  0.049763552   -25357.867    1915.3702   -1.0964722   0.71740673   0.75821286   -1.5138727    173.71287    173.66962 -0.010373116 
 6580000     26320000    9812.5451   -35235.313     274.3026 -0.060146294   -25422.768    1980.1207     -3.98372     2.615899     2.753533     -5.50408    173.63287    173.47562 -0.030421443 
 6600000     26400000     9816.238    -34984.79    274.40583 -0.025654382   -25168.552    1728.0006  -0.22958623   0.15111049   0.15955096  -0.31780611    173.55287     173.5438 -0.0036063583 
 6620000     26480000    9726.8632   -35120.126    271.90743  -0.10864541   -25393.262    1954.2795    -1.830538    1.2124102     1.278594   -2.5407893    173.47287    173.40028  0.014939434 
 6640000     26560000    9654.0806   -35053.119    269.87284 -0.072968856   -25399.038    1959.0327    4.3154222    -2.884075   -3.0301759    6.0102182    173.39287     173.5646 -0.012840341 
 6660000     26640000    9854.3461   -35042.897    275.47112  0.072523954   -25188.551    1746.5765    6.5252234   -4.3931217    -4.604263    9.1146748    173.31287     173.5733  0.013504319 
 6680000     26720000    9739.7441    -35163.65     272.2675 -0.054110338   -25423.906    1982.1847   -3.4280379    2.3150824    2.4273894   -4.7961724    173.23287    173.09584 -0.022534302 
 6700000     26800000    9874.3463   -35203.755    276.03021 0.0099716691   -25329.409    1886.5943    4.0254415   -2.7456667   -2.8691195    5.6546186    173.15287    173.31444 -0.031298479 
 6720000     26880000    9900.2028   -35064.062    276.75301  0.049769668    -25163.86    1723.4018   0.89681431  -0.61684495  -0.64278547    1.2640992    173.07287      173.109 -0.023223395 
 6740000     26960000    9808.4222    -35179.27    274.18735 -0.026637419   -25370.848    1930.0871   -2.2284221    1.5379166    1.5997757   -3.1448903    172.99287    172.90302 -0.0024512594 
 6760000     27040000    9810.8145   -35071.729    274.25423  0.089705676   -25260.915    1818.7103   0.82422387  -0.57285765  -0.59674079    1.1677373    172.91287    172.94624 0.0017468096 
 6780000     27120000    9912.5172   -35110.909    277.09725 -0.048812548   -25198.391    1760.1644    6.9560232     -4.87455   -5.0451691    9.8793333    172.83287    173.11514 0.0061036591 
 6800000     27200000    10031.486   -34970.533    280.42292  -0.07273737   -24939.048     1500.819   -0.5837544   0.41246912   0.42650979  -0.83235244    172.75287     172.7291 -0.018202988 
 6820000     27280000    9760.2509   -34984.683    272.84076 -0.027767455   -25224.432    1786.1823  -0.98052523   0.69586236   0.71930727   -1.4010914    172.67287    172.63285 0.0017426302 
 6840000     27360000    9765.1746   -34949.235    272.97839  0.072854269   -25184.061    1743.0494  -0.49076642   0.35233256   0.36328395  -0.70495755    172.59287    172.57274  0.014296732 
 6860000     27440000    9904.0197   -34999.108    276.85971  -0.15595968   -25095.089    1655.8933   -1.4999031    1.0748955    1.1085454   -2.1526688    172.51287    172.45137 0.0065991576 
 6880000     27520000    9906.8455    -35069.19     276.9387  0.063940395   -25162.344    1719.8654    1.5364999   -1.1104704   -1.1447201    2.2145791    172.43287    172.49615  0.014591612 
 6900000     27600000    9858.5811   -35181.618     275.5895  0.029066862   -25323.037    1879.8912    5.0461971   -3.6658572   -3.7857114    7.2961788    172.35287    172.56134 -0.0074800841 
 6920000     27680000    9766.4998    -35048.56    273.01544  0.038110811    -25282.06    1839.1531    1.2583315   -0.9192984  -0.94816083    1.8241482    172.27287      172.325 -0.0025150883 
 6940000     27760000    9808.9864   -35171.937    274.20312 -0.0096857873    -25362.95    1920.8005  0.081658941 -0.059877682 -0.061634369   0.11854246    172.19287    172.19627 0.0019267854 
 6960000     27840000    9873.4566   -35136.895    276.00534  0.013635121   -25263.439    1820.9178    -4.689345    3.4622757    3.5750503   -6.8380037    172.11287    171.91751 -0.016906797 
 6980000     27920000    9838.4456   -35229.284    275.02663 -0.016442185   -25390.838    1949.2004    1.4412738   -1.0718386   -1.1044083    2.1085127    172.03287    172.09312 -0.014170665 
 7000000     28000000     9894.601   -35135.963    276.59642  -0.10405063   -25241.362    1800.3066   0.14917607  -0.11204045  -0.11437457   0.21883351    171.95287    171.95913 -0.016970242 
 7020000     28080000    9828.3736   -35203.353    274.74508 -0.013891777    -25374.98    1929.9774   0.82320789  -0.62041656  -0.63624985    1.2113636    171.87287    171.90749   0.01201608 
 7040000     28160000     9873.665    -35021.74    276.01117 -0.041807732   -25148.075    1707.0347  -0.56168191     0.425136    0.4357494  -0.82831439    171.79287    171.76921 -0.011083919 
 7060000     28240000    9742.0354    -35032.76    272.33156   0.02920919   -25290.725    1849.4156   -2.7123555    2.0814857    2.1265262   -4.0263592    171.71287    171.59784  0.020500944 
 7080000     28320000    9758.7614   -35085.966    272.79912 -0.035915292   -25327.205    1882.6635    2.1619305   -1.6660899   -1.7055651    3.2185014    171.63287    171.72484  0.012574627 
 7100000     28400000     9734.679   -35207.507    272.12591 -0.0042162219   -25472.828    2032.4956    2.3514864    -1.829575    -1.862111    3.5134442    171.55287    171.65326  0.013964286 
 7120000     28480000    9892.8413   -35159.747    276.54723  0.076517865   -25266.906    1824.0752   0.26415322  -0.20628715    -0.210631   0.39584938    171.47287    171.48419 -0.0056144171 
 7140000     28560000    9922.7316   -35191.613    277.38279  0.077530389   -25268.881    1826.2113    3.5911615   -2.8276818   -2.8901398     5.407877    171.39287    171.54739 -0.013152063 
 7160000     28640000    9901.9162   -35257.921    276.80091  0.049242022   -25356.004    1914.5333   -3.1447404    2.4842012    2.5396453   -4.7445175    171.31287    171.17732 -0.0072790762 
 7180000     28720000    9863.9433   -34997.586     275.7394   0.15721702   -25133.642    1690.6039  -0.99541813   0.79193157   0.80788988   -1.5068838    171.23287    171.18982  0.013137754 
 7200000     28800000    9989.9623   -35162.147    279.26217  0.052312985   -25172.185    1729.8104    1.8040277   -1.4485776   -1.4704875    2.7413913    171.15287     171.2312 0.0035219445 
 7220000     28880000    9801.8178   -35139.806    274.00273   0.11907195   -25337.988    1893.6526    1.2909036   -1.0429535   -1.0611149    1.9698093    171.07287    171.12916 -0.025927131 
 7240000     28960000    9872.0733   -35108.581    275.96667   0.13946569   -25236.508    1791.0651  0.093048465 -0.075669181 -0.076877302   0.14245688    170.99287    170.99695  -0.01035653 
 7260000     29040000    9907.9433   -34978.344    276.96939 0.0082008486   -25070.401    1630.0724   -6.7401152    5.5318821    5.6117088   -10.369289    170.91287    170.61661 -0.0099830678 
 7280000     29120000    9898.2279    -35073.37     276.6978   0.01587428   -25175.142    1732.7848   -0.7450622   0.61789844   0.62149027   -1.1502897    170.83287    170.80001 -0.012259096 
 7300000     29200000    9865.0716   -35153.791    275.77094  0.010897479   -25288.719    1848.2217    1.5957143   -1.3267007   -1.3419049    2.4712644    170.75287    170.82349 -0.012019225 
 7320000     29280000    9780.7098   -35335.808    273.41267  0.027664561   -25555.099    2111.4923   -3.0617104    2.5623153    2.5871626    -4.757409    170.67287    170.53695  0.015744908 
 7340000     29360000    10004.857   -35124.274    279.67855  0.041514328   -25119.417    1675.6731   -3.5181767    2.9772583    2.9820342   -5.4894592    170.59287    170.43604  0.024296299 
 7360000     29440000    9844.9419    -35042.82    275.20823 -0.033237052   -25197.878    1756.6869    3.7740915   -3.2191508   -3.2253242    5.9168754    170.51287    170.68193 0.0038437333 
 7380000     29520000    9873.8122   -34986.468    276.01528 -0.031877109   -25112.656     1671.895    -3.579655    3.0826903    3.0955968   -5.6479757    170.43287    170.27151 -0.018723711 
 7400000     29600000    9794.9731    -35158.76    273.81139  0.071639657   -25363.787    1920.1164   -1.1150687   0.96397996   0.96709076   -1.7629237    170.35287    170.30251  0.017890054 
 7420000     29680000    9763.9312   -35205.667    272.94364 -0.091274695   -25441.736    2001.2891    3.8474676   -3.3521423   -3.3609376       6.1103    170.27287    170.44746 -0.0064558854 
 7440000     29760000    9854.2055   -35168.419    275.46719   0.02260353   -25314.214    1869.9754   -2.6727763    2.3371384    2.3438499   -4.2543603    170.19287    170.07132  0.014361648 
 7460000     29840000    9844.5833   -35085.732    275.19821 -0.0082460667   -25241.149    1799.8178   -3.2846011     2.912479    2.9013204   -5.2620147    170.11287    169.96253 -0.0025854345 
 7480000     29920000    9760.6299   -35138.753    272.85135  0.021478961   -25378.123    1934.5555    4.0223178   -3.5912685   -3.5689633    6.4663551    170.03287    170.21763  0.022566354 
 7500000     30000000    9894.7324   -35075.589    276.60009 0.0066185656   -25180.856    1738.4912    2.8166767   -2.5128922   -2.5041892    4.5298188    169.95287     170.0823  0.018835241 
 7520000     30080000    10027.231   -35237.286    280.30398  0.038003735   -25210.056    1764.6999    2.6334464   -2.3699935   -2.3639329    4.2591182    169.87287    169.99457 -0.0065755115 
 7540000     30160000    9783.1017   -35306.644    273.47953   0.03388362   -25523.542    2079.6202     4.359532   -3.9499106   -3.9424974    7.0817087    169.79287    169.99521 -0.0046789547 
 7560000     30240000    9821.1927   -34943.376    274.54434   -0.0161261   -25122.183    1681.5772   -4.5613179    4.1378038    4.1324175   -7.4164625    169.71287    169.50098  0.027928946 
 7580000     30320000     9893.075   -35086.135    276.55376 -0.028626423    -25193.06    1750.2161   -1.4523867    1.3327839    1.3299886   -2.3779423    169.63287    169.56494 -0.0035727558 
 7600000     30400000    9846.7753   -34956.226    275.25948 -0.0084719302    -25109.45    1668.5144   -1.1381328     1.051525    1.0478693   -1.8705831    169.55287    169.49943 -0.0020792955 
 7620000     30480000     9743.003   -35041.604     272.3586  -0.08430315   -25298.601    1859.2578   0.53060472   -0.4951986  -0.49355944   0.87770379    169.47287    169.49796 -0.023354847 
 7640000     30560000    9980.8543   -35258.306    279.00756  0.089734281   -25277.452    1831.8205  -0.82059602   0.76700969   0.76530636   -1.3591819    169.39287    169.35404 -0.012518711 
 7660000     30640000    9855.0551   -35090.756    275.49094  -0.05448441   -25235.701    1794.3538   -1.9757765    1.8583675    1.8529026   -3.2848852    169.31287    169.21902  0.014296714 
 7680000     30720000    9821.9472   -35150.108    274.56543  0.047699475   -25328.161    1884.5475   -3.6219566    3.4279589    3.4143765   -6.0437935    169.23287     169.0602 -0.010786574 
 7700000     30800000    9872.4789   -35158.834    275.97801   0.18867973   -25286.355    1843.0745  -0.97927712   0.93815718   0.93391237   -1.6466071    169.15287    169.10583  0.013187574 
 7720000     30880000    9742.5399   -35255.105    272.34566  -0.17942022   -25512.565    2070.6651    2.5288656    -2.429667   -2.4222194    4.2621109    169.07287    169.19465 0.0021145885 
 7740000     30960000    9796.0606    -35201.41    273.84179 -0.0099947123   -25405.349    1962.2272    1.5488631   -1.5002214   -1.4931222    2.6227953    168.99287    169.06782 -0.0031515196 
 7760000     31040000    9838.6439   -35157.609    275.03218  0.050468759   -25318.965    1876.7496    3.7545764   -3.6724491    -3.652297    6.3971087    168.91287    169.09565  -0.02435059 
 7780000     31120000    9798.8982   -35228.037    273.92111 -0.017890051   -25429.139    1986.5831   0.75865543  -0.74544553  -0.73973477    1.2955519    168.83287    168.86989 -0.032176185 
 7800000     31200000     9828.295   -35236.928    274.74288 -0.042464927   -25408.633    1964.9519   -5.7422526    5.6931864    5.6293685   -9.8526963    168.75287    168.47137  0.008233248 
 7820000     31280000    9858.2237   -35347.107    275.57951  0.072140019   -25488.884    2044.6328   0.90840388  -0.90330137  -0.89659519    1.5636604    168.67287    168.71755 0.0012347265 
 7840000     31360000    9869.0598   -35159.437    275.88243 0.0042126568   -25290.377    1846.3861   -1.7572406    1.7587644    1.7460517   -3.0380658    168.59287    168.50608 -0.00031594004 
 7860000     31440000    9766.3724   -34842.816    273.01188 -0.035272339   -25076.444    1638.3157   -1.6440107    1.6611251    1.6489789   -2.8602866    168.51287    168.43116 -0.015109727 
 7880000     31520000    9981.9909   -35090.348    279.03934 -0.033843411   -25108.357    1669.2243   -1.9591813    1.9932131    1.9671506   -3.4177436    168.43287    168.33523 -0.0073286763 
 7900000     31600000    9802.4868    -34916.42    274.02143 -0.057390869   -25113.933    1674.5795  -0.53703818   0.54851665   0.54314892  -0.94036763    168.35287    168.32601  0.013214584 
 7920000     31680000    9785.4373   -34992.596    273.54482  0.004708482   -25207.159     1767.102   -4.7070016    4.8343592    4.7839116   -8.2711971    168.27287    168.03656 0.0031763758 
 7940000     31760000    9943.0511   -35023.296     277.9508 0.0014793466   -25080.245    1641.3799   -1.1043863    1.1477258    1.1310213   -1.9534976    168.19287    168.13706  0.020102988 
 7960000     31840000    9906.3463   -35071.876    276.92475  -0.10338065    -25165.53    1724.3468    1.9131199   -2.0023959   -1.9789422    3.4037963    168.11287    168.21013  0.013381589 
 7980000     31920000    9758.8141   -35252.778    272.80059  -0.03255787   -25493.964    2050.3585     3.852485    -4.061174   -3.9996991    6.8798523    168.03287    168.22945 -0.0077676849 
 8000000     32000000    9832.3323   -35036.493    274.85574 -0.063093812   -25204.161    1763.8787  -0.96974727    1.0325519    1.0170964    -1.743863    167.95287    167.90305 -0.012161978 
 8020000     32080000    9865.5972   -35020.643    275.78564  -0.11764524   -25155.046     1715.989   0.21076849   -0.2257116  -0.22263144   0.38070178    167.87287    167.88376  -0.03450007 
 8040000     32160000    9899.6122   -35151.421     276.7365  0.043773396   -25251.808    1811.3376   0.25171907   -0.2713924   -0.2666622   0.45620725    167.79287    167.80591 0.0034205115 
 8060000     32240000    9938.9963   -35020.555    277.83745 -0.090001785   -25081.559    1641.4692   -1.7147287    1.8688283    1.8324538   -3.1290095    167.71287    167.62348  -0.01266827 
 8080000     32320000     9812.623   -35281.939    274.30478  0.027384267   -25469.316    2024.5023  -0.42627883   0.46497041   0.45631511  -0.77854647    167.63287    167.61063 -0.012806436 
 8100000     32400000     9822.163    -35198.11    274.57146 -0.037668678   -25375.947    1933.6907  -0.21653262   0.23905379   0.23374527  -0.39833396    167.55287     167.5415 -0.0086796835 
 8120000     32480000    9671.2448   -35053.456    270.35266 -0.020982544   -25382.211    1942.8659    1.2415416   -1.3764091   -1.3495205    2.2928438    167.47287    167.53839 0.0059785955 
[...]
36920000   1.4768e+08    9862.1718   -35120.705    275.68988   0.49689487   -25258.533    4779.0096   -322.38486   -62.618105   -98.250513    342.79176    52.272874    62.066928    4732.1226 
36940000   1.4776e+08    9952.1651    -34826.24    278.20558   0.57016227   -24874.075    4400.6526   -324.37366   -63.757249    -98.78573    345.02446    52.192874     62.05072    4759.7443 
36960000   1.4784e+08    9716.4601     -35035.6    271.61661   0.54093422    -25319.14    4897.8711   -322.38183   -62.943044   -97.192069     342.5466    52.112874    61.899924    4787.2008 
36980000   1.4792e+08    9828.7596   -34827.937    274.75587   0.47393235   -24999.177    4604.5404   -321.86303   -63.141911   -98.239482    342.39408    52.032874    61.815566      4814.76 
37000000     1.48e+08     9926.599   -34888.303     277.4909   0.43037251   -24961.704    4559.7389   -325.40706   -64.519208   -99.008019    346.20091    51.952874    61.844333     4842.315 
37020000   1.4808e+08    9951.0383   -34987.256    278.17408   0.55125096   -25036.218     4685.822   -323.13651   -63.163222   -97.446876    343.36961    51.872874    61.683438    4869.6934 
37040000   1.4816e+08    9867.6258   -35011.685    275.84234   0.66449306   -25144.059    4790.1557   -326.11707   -63.823848    -98.57603    346.61659    51.792874    61.696209    4897.3207 
37060000   1.4824e+08    9724.5457   -35096.311    271.84264   0.41366286   -25371.765    5065.9068   -323.92686   -64.150283   -98.868346    344.70106    51.712874     61.56148    4925.0287 
37080000   1.4832e+08    9780.6907   -34830.098    273.41214   0.33583172   -25049.407    4704.3845   -330.53064   -65.622356    -100.7587    351.72306    51.632874    61.682109    4952.7989 
37100000    1.484e+08    9708.1144   -34937.249    271.38332   0.44653361   -25229.135    4920.5251   -329.49469   -65.208702   -100.13602    350.49415    51.552874    61.566997     4980.714 
37120000   1.4848e+08    9894.7803   -35057.803    276.60143   0.58583096   -25163.022    4877.4381   -329.75891   -64.744689   -100.06338    350.63584    51.472874    61.491045    5008.7781 
37140000   1.4856e+08    9901.7974    -34792.76    276.79759   0.48426249   -24890.963     4610.755   -332.96114   -64.002459   -100.35733    353.59728    51.392874    61.495657    5036.9332 
37160000   1.4864e+08    9917.5821   -34918.722    277.23884   0.54020845    -25001.14    4755.1003   -331.39487    -65.62661   -100.96056    352.59389    51.312874    61.386989    5065.0882 
37180000   1.4872e+08    9923.6116   -34803.249    277.40739   0.48353463   -24879.637    4698.2106   -328.02942   -64.571687   -100.69125    349.15832    51.232874     61.20883    5093.2997 
37200000    1.488e+08    9677.3634   -34892.073     270.5237   0.49777396   -25214.709    4968.3528    -336.9702   -66.752874   -102.25429    358.41429    51.152874    61.393286    5121.6256 
37220000   1.4888e+08    9902.8571   -34809.085    276.82721   0.40355724   -24906.228    4752.3764   -331.17619   -64.033708   -101.19439    352.16231    51.072874    61.134658    5149.8615 
37240000   1.4896e+08    9889.7831   -34769.557    276.46174   0.45609607   -24879.774    4704.8628   -335.43702   -66.840076   -102.28883    356.99943    50.992874    61.192862    5178.0937 
37260000   1.4904e+08    9825.2417   -34579.097    274.65753   0.53497136   -24753.856    4698.4063   -326.65638   -64.155556   -100.15199    347.63594    50.912874    60.845334    5206.4237 
37280000   1.4912e+08    9783.9277   -34690.678    273.50262   0.41271063   -24906.751    4797.2546   -334.62415   -66.548375   -101.60306    355.98481    50.832874    61.003873    5234.8618 
37300000    1.492e+08    9751.5721   -34712.909    272.59815   0.50605314   -24961.336    4850.6414   -337.37095   -66.813126   -102.72074    358.93551    50.752874    61.008178    5263.4755 
37320000   1.4928e+08    9789.9039   -34939.336    273.66969   0.43240583   -25149.432    5079.7044   -336.50102   -65.957179   -101.71467    357.67186    50.672874    60.892074    5292.1719 
37340000   1.4936e+08    9677.9221   -34704.443    270.53932   0.49664022   -25026.521    4987.8485   -336.58304   -66.350947   -100.30509    357.42371    50.592874    60.804984    5320.8944 
37360000   1.4944e+08    9866.9835   -34849.895    275.82439   0.54809172   -24982.912    4945.5624   -338.59203   -67.078363   -102.38075    360.03595    50.512874     60.79962    5349.8083 
37380000   1.4952e+08    9889.0464   -34676.775    276.44114    0.4568985   -24787.728    4803.4503   -336.92164   -66.063673   -100.71509     357.8046    50.432874    60.655867    5378.8825 
37400000    1.496e+08    9825.8936   -34805.807    274.67575   0.43044606   -24979.913    4936.8796   -345.10607   -66.814362   -103.13257    366.33139    50.352874    60.819489    5408.0259 
37420000   1.4968e+08    9915.6145    -34603.47    277.18383   0.52548703   -24687.856    4671.0365   -344.28196   -69.015549   -104.09324    366.23574    50.272874    60.736757    5437.2984 
37440000   1.4976e+08    9864.8173   -34873.843    275.76383   0.48428598   -25009.026    5014.2819   -345.26137   -68.216241   -104.41014    367.09719    50.192874    60.681369    5466.7618 
37460000   1.4984e+08    9755.5813   -34714.322    272.71022   0.52195699    -24958.74    4918.4729    -351.8541   -69.367891   -106.67985    374.15745    50.112874    60.803091    5496.3649 
37480000   1.4992e+08    9906.2735    -34717.74    276.92271   0.53137186   -24811.466    4794.0282   -352.67519   -70.612958   -105.84432    374.92532    50.032874     60.74503    5526.0514 
37500000      1.5e+08    10005.629   -34737.738    279.70011   0.42026144    -24732.11    4754.9641   -352.24133   -70.409776   -103.97279    373.95432    49.952874    60.637287    5555.8942 
37520000   1.5008e+08    9837.5085   -34745.293    275.00044   0.48649419   -24907.785    4925.3068   -354.55639   -71.743495   -106.93781    377.21752    49.872874    60.650522    5585.8174 
37540000   1.5016e+08     9766.737   -34559.474    273.02207   0.55942467   -24792.737    4847.1453   -354.37516   -69.743312   -106.70053    376.60442    49.792874    60.553004    5615.9191 
37560000   1.5024e+08    9812.0537   -34673.751    274.28886    0.6147026   -24861.698    4898.0783   -357.90462   -71.179684   -109.21648    380.90748    49.712874    60.595949    5646.1081 
37580000   1.5032e+08    9872.2775    -34775.06    275.97238   0.44495055   -24902.783    4967.4708   -358.32913   -71.225933   -108.25828    381.04167    49.632874    60.519783    5676.3535 
37600000    1.504e+08    9651.9802   -34531.024    269.81413   0.42645552   -24879.044     4976.543   -358.59521   -71.853948   -106.94255    381.03835    49.552874    60.439688    5706.7681 
37620000   1.5048e+08    9908.4845   -34629.977    276.98452   0.55232144   -24721.492    4821.9274   -361.25736   -69.369205   -108.86862    383.62918    49.472874    60.433712    5737.1867 
37640000   1.5056e+08    9851.2178   -34655.949    275.38367   0.57326422   -24804.731    4960.6432   -358.60894     -70.5275   -108.22201    381.16466    49.392874    60.283297    5767.7939 
37660000   1.5064e+08    9859.8208   -34771.339    275.62416   0.54004397   -24911.519    5079.4468   -360.00316   -71.037678   -109.01394    382.79586    49.312874    60.249903    5798.5014 
37680000   1.5072e+08    9790.2775   -34700.782    273.68013   0.67033457   -24910.504    5084.9347   -362.34912   -71.377725   -108.70266    384.97783    49.232874    60.232245    5829.3825 
37700000    1.508e+08    9737.7554    -34639.32    272.21191   0.46874318   -24901.564    5065.5337   -365.62854   -72.718936   -111.05828      388.981    49.152874    60.266621    5860.4152 
37720000   1.5088e+08    9887.3599   -34723.754      276.394   0.54434906   -24836.394    5008.5599   -367.48364   -73.611823   -110.97713    390.86935    49.072874    60.240574    5891.6384 
37740000   1.5096e+08    9745.4511   -34516.355    272.42704   0.57641898   -24770.904    4942.2951   -370.57535    -73.80696   -110.62974    393.71627    48.992874    60.241914    5923.0029 
37760000   1.5104e+08    9900.6775   -34677.522    276.76628   0.47968999   -24776.844     4927.428   -374.80891   -73.479419   -112.66542    398.21406    48.912874    60.290423    5954.4826 
37780000   1.5112e+08    9867.5388   -34409.478    275.83991   0.61118112   -24541.939    4794.8248    -368.7702   -71.370509   -113.08827    392.26798    48.832874    60.040535    5986.0678 
37800000    1.512e+08    9879.0553   -34580.447    276.16185   0.63600782   -24701.392    4923.1205   -374.12641   -74.242719   -111.80639    397.47103    48.752874    60.109193    6017.7802 
37820000   1.5128e+08    9818.4341   -34631.209    274.46722   0.48859141   -24812.775    5087.2549   -372.55719   -73.009416   -111.69631    395.73388    48.672874     59.97956    6049.6231 
37840000   1.5136e+08    9966.6794   -34609.544    278.61132   0.57808941   -24642.864    4896.6029   -376.81998   -73.805721   -113.82304    400.49503    48.592874    60.035593    6081.6449 
37860000   1.5144e+08    9819.4677   -34621.003    274.49612   0.55861818   -24801.535     5055.565   -379.42397   -75.440653   -113.82204    403.24843    48.512874    60.034262    6113.8486 
37880000   1.5152e+08    9858.8007    -34529.07    275.59565   0.69946454   -24670.269     4918.233   -382.75739   -74.452409   -115.09098    406.56158    48.432874    60.048923    6146.1675 
37900000    1.516e+08    9830.1437   -34481.662    274.79456   0.68454839   -24651.518    4945.7348   -381.01211    -75.11048   -115.52093     405.1628    48.352874    59.928958     6178.548 
37920000   1.5168e+08    9791.2234   -34510.257    273.70657   0.52901746   -24719.034    4998.7723   -385.94388   -74.725385   -115.11501    409.61937    48.272874    59.976289    6211.1551 
37940000   1.5176e+08    9823.9939   -34631.095    274.62265   0.49622112   -24807.101     5095.552   -387.06931   -76.947179   -115.93564    411.32055    48.192874    59.944894    6243.9102 
37960000   1.5184e+08    9879.7345   -34389.181    276.18083   0.53347798   -24509.447    4775.6148    -391.6005   -76.707199   -118.19231    416.17829    48.112874    60.003686    6276.8728 
37980000   1.5192e+08    9855.9189   -34673.634    275.51509   0.62741104   -24817.715    5151.2909   -388.95844   -76.266263   -116.10821    413.02098    48.032874    59.833477    6309.9339 
38000000     1.52e+08    9813.0566   -34367.514     274.3169   0.56228738   -24554.457    4893.1569   -391.56886   -77.909941   -116.08763    415.77935    47.952874    59.832288    6343.1821 
38020000   1.5208e+08    9887.4577   -34389.102    276.39673   0.51101335   -24501.645    4840.9109   -394.12966   -76.257849    -117.9603    418.41138    47.872874    59.827489     6376.467 
38040000   1.5216e+08    9925.2393   -34347.579    277.45289   0.61057239   -24422.339    4824.4955   -391.49554   -75.641261   -117.58534    415.71225    47.792874    59.670371    6409.8639 
38060000   1.5224e+08    9863.5843   -34385.625    275.72937   0.66648327   -24522.041    4929.4435   -393.47854   -76.085817   -119.22718    418.12622    47.712874    59.659342    6443.4313 
38080000   1.5232e+08    9779.7646   -34539.142    273.38625   0.68133818   -24759.378    5175.3107   -395.45226   -77.495753   -119.11289    420.20943    47.632874    59.638862    6477.0956 
38100000    1.524e+08    9765.1107   -34300.408    272.97661   0.58941041   -24535.297    5000.8975   -394.64639   -76.418122   -118.17436    418.98769    47.552874    59.523955     6510.846 
38120000   1.5248e+08    9815.5507   -34255.676    274.38662   0.69682829   -24440.126     4833.227   -402.45839   -80.080826   -120.85263    427.77454    47.472874    59.695008    6544.7205 
38140000   1.5256e+08    9721.0166   -34421.569    271.74399   0.70154579   -24700.552    5077.2294   -406.34679   -79.018702   -122.76463    431.77867    47.392874    59.729412    6578.8163 
38160000   1.5264e+08    9893.3573   -34279.294    276.56165   0.59634542   -24385.937    4831.6479   -403.56304    -78.05023   -123.21382    429.11142    47.312874    59.573205    6613.0866 
38180000   1.5272e+08    9839.8237   -34297.235    275.06516   0.61311239   -24457.411    4922.1653   -405.09107   -79.720333    -121.8331    430.46186    47.232874    59.531788    6647.4758 
38200000    1.528e+08    9641.0523   -34172.442    269.50864   0.46608571    -24531.39    5046.0459   -404.55764   -76.776866   -121.91352    429.44671    47.152874    59.422784    6682.0495 
38220000   1.5288e+08    9800.3246   -34263.812    273.96099   0.63476734   -24463.487    4979.2158   -406.31414    -78.37046   -123.04013    431.70821    47.072874    59.407399    6716.7191 
38240000   1.5296e+08    9837.7583   -34153.755    275.00742   0.57411708   -24315.997    4808.0729   -411.11587   -78.440827   -124.66681    436.70475    46.992874    59.470157    6751.5693 
38260000   1.5304e+08    9883.3376   -34196.007    276.28155   0.58790631   -24312.669    4856.8329   -410.28738   -76.748946   -123.36962    435.25417    46.912874    59.348712    6786.4772 
38280000   1.5312e+08    9837.8341   -34285.316    275.00954   0.57997311   -24447.482    4998.3381   -412.12716   -77.560355    -125.2784    437.67463    46.832874    59.337868    6821.4371 
38300000    1.532e+08    9758.0718   -34221.559    272.77984   0.58804624   -24463.487    4992.4183    -415.7847   -78.977041   -127.65508    442.05216    46.752874     59.38294    6856.5385 
38320000   1.5328e+08    9851.6969   -34351.135    275.39706   0.57684935   -24499.438    5031.7839   -418.07643   -80.108287    -127.6988    444.42347    46.672874    59.370692    6891.8089 
38340000   1.5336e+08    9873.1415   -34246.164    275.99653   0.54187625   -24373.023    4921.3381   -419.79185   -79.843772   -128.14513    446.11814    46.592874    59.339111    6927.2315 
38360000   1.5344e+08    9912.3045   -34055.364    277.09131   0.62540395   -24143.059    4743.7397   -418.38922   -80.291485   -128.02529    444.84462    46.512874    59.222725    6962.7288 
38380000   1.5352e+08    9869.1789   -34188.929    275.88576   0.69119267    -24319.75    4967.1679   -417.06412   -80.842854    -128.4476    443.82073    46.432874     59.11347    6998.3208 
38400000    1.536e+08    9763.5316   -34259.769    272.93247   0.57720901   -24496.238    5096.8312   -423.72652   -80.877725    -129.4395    450.37757    46.352874    59.220809    7034.0505 
38420000   1.5368e+08    9792.5471   -34240.132    273.74357   0.65702134   -24447.585    5062.5401   -425.09897   -81.428442   -130.06981    451.94898    46.272874    59.185706    7069.9823 
38440000   1.5376e+08     9962.028   -34264.527    278.48129     0.567714   -24302.499    4947.2767   -425.44524   -80.861666   -130.79684    452.38266    46.192874    59.118097    7106.1015 
38460000   1.5384e+08    9913.5854   -34162.919    277.12711    0.5909451   -24249.334    4857.9373   -430.75202   -82.711181   -131.82117    458.00138    46.112874    59.198632    7142.3737 
38480000   1.5392e+08     9798.634   -34176.441    273.91373   0.62316578   -24377.807    5059.7435   -428.26147   -81.948859   -130.03197    455.00749    46.032874    59.033092    7178.8452 
38500000     1.54e+08    9871.0546   -34250.813    275.93819   0.63222621   -24379.759    4982.1571    -437.1341   -81.981871   -131.79573    463.87214    45.952874    59.206368    7215.4347 
38520000   1.5408e+08    9796.3552   -34180.671    273.85003   0.63262327   -24384.315    5049.2678   -434.19625   -85.124044   -132.55501    461.89102    45.872874    59.069765     7252.082 
38540000   1.5416e+08    9842.6322   -34136.168    275.14367   0.61805077   -24293.536    5065.5438   -429.59668   -82.717873   -131.15414    456.72417    45.792874     58.84214    7288.6702 
38560000   1.5424e+08    9797.1039   -34099.784    273.87096    0.6222862    -24302.68    5099.8239   -430.04342   -84.253809   -131.06321    457.39874    45.712874    58.781414    7325.3754 
38580000   1.5432e+08    9876.6256   -34091.793    276.09393   0.56127364   -24215.167    4972.7401   -435.51576   -86.039671   -132.65727    463.33007    45.632874     58.87088    7362.2225 
38600000    1.544e+08    9800.7471    -34225.66     273.9728   0.59537901   -24424.913    5212.8454   -436.25026   -85.280996   -132.03456    463.70278    45.552874    58.801529    7399.2287 
38620000   1.5448e+08    9914.1844   -34092.029    277.14385   0.48829752   -24177.845    4943.2064   -441.02128   -84.723488   -132.89944    468.33759    45.472874    58.853952    7436.3697 
38640000   1.5456e+08    9855.3236   -33899.708    275.49844   0.68963234   -24044.384    4875.0111   -438.43553   -86.395169   -133.01182    466.24241    45.392874     58.71409     7473.648 
38660000   1.5464e+08    9778.2083    -33932.76    273.34274   0.69929208   -24154.552    4965.0212   -442.44802   -86.602608   -134.65242    470.52262    45.312874    58.756382    7511.0295 
38680000   1.5472e+08    10038.484   -33923.109    280.61856   0.66616402   -23884.625    4727.5203   -442.85846   -86.685987   -134.61798    470.91408    45.232874    58.687566    7548.6718 
38700000    1.548e+08    9817.4073    -34041.48    274.43852   0.66959971   -24224.073    5099.6862   -442.84937   -85.930558   -135.83499    471.11651    45.152874     58.61335    7586.3245 
38720000   1.5488e+08    9665.0682   -34113.818    270.17999    0.6870782    -24448.75    5334.3918   -445.09336   -85.915649    -135.9199    473.24815    45.072874    58.594254    7624.0886 
38740000   1.5496e+08    9884.9361   -33951.594    276.32624   0.70188295   -24066.658    4988.6734   -444.97023    -87.14809   -135.54977    473.25155    44.992874    58.514351    7661.8869 
38760000   1.5504e+08    9878.7515   -33963.943    276.15336   0.73224065   -24085.192    5056.2216   -443.81953   -86.816842   -136.43489    472.36365    44.912874    58.408983    7699.7956 
38780000   1.5512e+08    9847.4054   -33927.748     275.2771   0.71081599   -24080.343    5051.4236   -446.95275   -85.025308    -137.3484    475.24799    44.832874    58.411392    7737.8162 
38800000    1.552e+08    9853.2424   -33936.288    275.44027   0.62115855   -24083.046    5132.9448   -444.63653   -86.282816   -134.28687     472.4186    44.752874    58.250552     7775.869 
38820000   1.5528e+08    9729.0366   -33931.604    271.96818   0.59303506   -24202.568    5204.7575   -450.13294   -85.607466   -138.59436    478.70314    44.672874    58.350111    7813.9845 
38840000   1.5536e+08    9982.3121   -33873.525    279.04832   0.65817057   -23891.213    4968.9834   -447.76259   -86.045132   -136.12164    475.84053    44.592874    58.188322    7852.2364 
38860000   1.5544e+08    9797.0195   -33702.749    273.86859   0.59544536   -23905.729    4881.9299   -458.11849   -87.203804   -137.32353    486.14278    44.512874    58.402672     7890.462 
38880000   1.5552e+08    9816.4521   -33749.545    274.41182   0.70406433   -23933.093    5039.7752   -450.93279   -85.387387   -138.25943    479.31937    44.432874    58.127717    7928.8179 
38900000    1.556e+08    9891.8648   -33807.493    276.51993   0.55946098   -23915.628    5065.6189   -450.54591   -86.663721   -137.98652    479.10593    44.352874    58.041619    7967.1217 
38920000   1.5568e+08    9790.2387   -33676.355    273.67904   0.67970225   -23886.116    5140.2095   -445.63961   -86.882192   -136.42808    474.08416    44.272874     57.81814    8005.5459 
38940000   1.5576e+08    9824.0608   -33663.037    274.62452   0.67807312   -23838.976    5012.4355   -453.89025   -87.665238   -139.98097    483.00747    44.192874    57.993092    8044.0854 
38960000   1.5584e+08    9956.9869   -34047.011    278.34037   0.64136537   -24090.024     5265.743    -456.4474   -87.751614   -139.94968    485.41785    44.112874     57.98196    8082.7417 
38980000   1.5592e+08    9887.8205   -33586.109    276.40687   0.65469593   -23698.289     4925.229   -455.05736   -85.679723   -143.44762    484.76328    44.032874    57.883257    8121.5389 
