LAMMPS (29 Oct 2020)
Reading data file ...
  orthogonal box = (0.0000000 0.0000000 0.0000000) to (1000.0000 1000.0000 1000.0000)
  2 by 2 by 2 MPI processor grid
  reading atoms ...
  12002 atoms
  scanning bonds ...
  600 = max bonds/atom
  reading bonds ...
  12000 bonds
Finding 1-2 1-3 1-4 neighbors ...
  special bond factors lj:    0.0      0.0      0.0     
  special bond factors coul:  0.0      0.0      0.0     
   600 = max # of 1-2 neighbors
   600 = max # of 1-3 neighbors
  1200 = max # of 1-4 neighbors
  1800 = max # of special neighbors
  special bonds CPU = 0.053 seconds
  read_data CPU = 0.087 seconds
Finding 1-2 1-3 1-4 neighbors ...
  special bond factors lj:    0.0      1.0      1.0     
  special bond factors coul:  0.0      0.0      0.0     
   600 = max # of 1-2 neighbors
   600 = max # of 1-3 neighbors
  1200 = max # of 1-4 neighbors
  1800 = max # of special neighbors
  special bonds CPU = 0.050 seconds
1 atoms in group centroid1
1 atoms in group centroid2
Neighbor list info ...
  update every 1 steps, delay 0 steps, check yes
  max neighbors/atom: 2000, page size: 100000
  master list distance cutoff = 43
  ghost atom cutoff = 43
  binsize = 21.5, bins = 47 47 47
  1 neighbor lists, perpetual/occasional/extra = 1 0 0
  (1) pair lj/expand, perpetual
      attributes: half, newton on
      pair build: half/bin/newton
      stencil: half/bin/3d/newton
      bin: standard
Setting up Verlet run ...
  Unit style    : real
  Current step  : 0
  Time step     : 4.0
Per MPI rank memory allocation (min/avg/max) = 195.3 | 196.0 | 197.1 Mbytes
Step Time KinEng PotEng Temp Press TotEng f_1 f_2[1] f_2[2] f_2[3] f_2[4] f_2[5] f_2[6] f_2[7] 
       0            0    9837.4929   -37771.155          275  0.075861616   -27933.662            0            0            0            0            0    200.03821    200.03825            0 
    2000         8000    9899.3381   -37833.649    276.72884  0.062950354   -27934.311  -0.72692096    1.9359394 -0.0025484809 0.00043233252    1.9359412    199.95821    200.01356  -0.20222217 
    4000        16000    9760.7269   -38014.648    272.85406  0.050968593   -28253.921    317.07021    4.6021073 -0.0050014482 0.0056476685    4.6021135    199.87821    200.00974  0.020327634 
    6000        24000    9830.6002   -37941.768    274.80732  0.026571051   -28111.167    173.22618   -3.2024398 0.0057208461 -0.0044171059   -3.2024479    199.79821    199.70675    0.2096383 
    8000        32000     9855.908   -38196.857    275.51478 -0.0017057765   -28340.949    403.68018   -1.2860849 0.0013074855 -0.00095059732   -1.2860859    199.71821     199.6815 -0.067836631 
   10000        40000    9861.3051   -37999.698    275.66565 -0.015984666   -28138.392    202.30207   0.89247477 -0.0015932378 0.00085117901    0.8924766    199.63821    199.66375  -0.27082442 
   12000        48000    9921.7053   -38062.297     277.3541 -0.062493504   -28140.592    205.05613    6.1585305 -0.011935748  0.002467168    6.1585426    199.55821    199.73421   0.12246202 
   14000        56000    9830.3893   -37882.723    274.80143 -0.042067076   -28052.333    115.75022    0.6498803 -0.0023176314 0.0011873137   0.64988552    199.47821    199.49682  0.046940889 
   16000        64000    9816.5776   -38010.108    274.41533 -0.0050213412   -28193.531    256.53134   -7.2174129  0.017480429 -0.0010657884   -7.2174342    199.39821    199.19204 -0.031109286 
   18000        72000    9864.3105   -38044.313    275.74967 -0.019352879   -28180.002    241.63159    9.8741126 -0.015365021 0.0021001369    9.8741248    199.31821    199.60037  -0.17834151 
   20000        80000    9827.2548   -38158.695     274.7138 -0.093002898    -28331.44    394.65705    1.8548748 -0.0023162256 0.00091437461    1.8548765    199.23821    199.29125  0.047989399 
   22000        88000    9724.1034   -38014.622    271.83028  0.040303681   -28290.518    351.87065   -3.4173623 0.0059669143  0.002301618   -3.4173683    199.15821    199.06061  0.098649067 
   24000        96000    9774.0801   -37933.857    273.22734  0.032586857   -28159.777    223.69065    2.6850325 -0.0071449918 0.00030822329    2.6850421    199.07821    199.15496   -0.1058342 
   26000       104000    9795.8989    -38012.05    273.83727 0.0058333011   -28216.152     278.0994    1.2172282 -0.0047223958 0.00056828848    1.2172374    198.99821    199.03303 -0.032206627 
   28000       112000    9855.1143   -38096.062     275.4926 -0.080176741   -28240.948    304.38251    -2.572577 0.0085785894 -0.00093069277   -2.5725915    198.91821    198.84475 -0.078363188 
   30000       120000    9858.9725   -38091.591    275.60045 -0.0047950334   -28232.618    295.58735   0.65194994 -0.0018978894 0.00097870761   0.65195344    198.83821    198.85688  0.025343243 
   32000       128000    9731.9969   -38087.676    272.05094 -0.069946158   -28355.679    417.31527   -1.1807163 0.0035785333 0.00017948181   -1.1807217    198.75821    198.72451 -0.086849627 
   34000       136000    9824.2527   -38134.358    274.62988 -0.022887271   -28310.106    373.10589  -0.93865925 0.0025912768 9.9907406e-06  -0.93866283    198.67821    198.65143  -0.11613361 
   36000       144000    9983.3632   -38074.775     279.0777 -0.069486783   -28091.412    155.11158    3.2579539  -0.01086199 0.00017998854     3.257972    198.59821    198.69133   0.22007956 
   38000       152000    9858.3718   -38125.351    275.58366  0.030965459   -28266.979    327.87603    -3.777443  0.017055336 -0.0013613677   -3.7774818    198.51821    198.41032  0.075226582 
   40000       160000    9787.6345    -38110.04    273.60624  -0.09386979   -28322.405    385.37065   0.50419186 -0.0027208141 -0.00025256396   0.50419927    198.43821    198.45266  -0.34198075 
   42000       168000    9877.4075   -38136.713    276.11578  0.052026142   -28259.306    320.16433    3.2804289 -0.013933413 0.00044758157    3.2804585    198.35821    198.45198  0.022506644 
   44000       176000    9871.1728   -37972.448     275.9415  -0.03406532   -28101.276    165.04025   -3.3117845  0.016157081 0.0045771302   -3.3118271    198.27821    198.18363   0.25765308 
   46000       184000     9842.189   -38026.592    275.13128 -0.098016698   -28184.403    247.94786   -4.5360941  0.025060908 0.0027921279   -4.5361642    198.19821    198.06864  -0.14292424 
   48000       192000    9866.8612    -38001.02    275.82097  0.070825574   -28134.159    196.48139    12.102188 -0.062953443 0.0027584054    12.102352    198.11821    198.46403  -0.17740972 
   50000       200000    9898.7852   -38142.073    276.71338 -0.077039769   -28243.288    307.35033    5.3851932 -0.032031223  0.005836455    5.3852916    198.03821    198.19211    0.2293373 
   52000       208000    9892.9397   -38063.174    276.54998  -0.01964928   -28170.234    232.10053   -10.185757  0.059254759 -0.0023952303   -10.185929    197.95821    197.66722 -0.0077746571 
   54000       216000    9911.9008    -38027.23    277.08002  0.056556006   -28115.329    178.21661   0.13587435 -0.00091230815 0.00016435815   0.13587752    197.87821    197.88213  -0.26659391 
   56000       224000    9779.7106   -38240.835    273.38474 -0.095986332   -28461.124     522.8878    4.7453041 -0.028963504 0.0098714312    4.7454027    197.79821    197.93383 -0.006923628 
   58000       232000    9922.2446   -38103.042    277.36917  0.031913761   -28180.798    243.60229    7.0096551 -0.049917028 0.0078072667    7.0098372    197.71821    197.91853    0.1091064 
   60000       240000    9770.2447   -38014.502    273.12013   0.13383999   -28244.257    306.70092   -6.7278405  0.046399119 -0.019851467   -6.7280298    197.63821    197.44602   0.15497439 
   62000       248000    9837.6721   -37924.188    275.00501  0.029970577   -28086.516    150.22121   -3.1358752   0.02315525 -0.0070375252   -3.1359685    197.55821    197.46865  -0.19681571 
   64000       256000    9884.3891   -38144.973    276.31095 -0.079530814   -28260.584     322.7433   0.52950271 -0.0031741057 0.0018904883   0.52951559    197.47821    197.49338   0.13477185 
   66000       264000     9705.398    -38208.38    271.30738  0.023170964   -28502.983    566.52667 -0.079087961 0.00040766589 -0.00030696373 -0.079089607    197.39821    197.39599  0.039816911 
   68000       272000    9904.0448   -38224.699    276.86041 -0.033425341   -28320.654    382.27254    2.2886472 -0.013926572 0.0071076274    2.2887006    197.31821    197.38364  -0.19124324 
   70000       280000    9836.3372   -38122.244    274.96769  0.070768686   -28285.906    347.51022   0.79637427 -0.0053887541 0.0015224934   0.79639396    197.23821      197.261  0.046688166 
   72000       288000    9717.8498   -38267.626    271.65546   -0.1708946   -28549.776    612.32831   -1.5686673 0.0093452573 -0.0035135907   -1.5686991    197.15821    197.11343  0.076026794 
   74000       296000    9955.1116   -38035.691    278.28795  -0.02201685    -28080.58    143.82171   -2.3844516  0.012896693 -0.0034394265   -2.3844889    197.07821    197.01012 -0.093568917 
   76000       304000    9773.1299    -37845.25    273.20078  0.032953559    -28072.12    137.47526    1.9354703 -0.012487986 0.0027911073    1.9355126    196.99821    197.05355  -0.21167963 
   78000       312000    9936.5728   -38109.012    277.76971 -0.011225836   -28172.439    232.41405    3.7502544 -0.026551092 0.0024276294    3.7503491    196.91821     197.0254  0.099586197 
   80000       320000    9910.1479   -38088.862    277.03102 -0.076626051   -28178.714    241.09075   -7.9314258  0.062130069 -0.008414053   -7.9316736    196.83821    196.61163   0.23532681 
   82000       328000    9799.7306   -38143.299    273.94438   0.04429507   -28343.569    403.16946    5.9875966 -0.054488235 0.0014662026    5.9878447    196.75821    196.92933  -0.20805899 
   84000       336000    9854.0578   -38118.715    275.46306   0.10623222   -28264.657    324.90833   -1.7137451  0.014950487 0.0010438021   -1.7138107    196.67821    196.62928  -0.10011972 
   86000       344000    9790.6811   -38241.323    273.69141  0.021060478   -28450.642    510.32126    6.6257415  -0.05097522 0.0010646928    6.6259377    196.59821    196.78756 -0.062250259 
   88000       352000    9931.4941   -38291.347    277.62774 -0.029276334   -28359.853    422.60204            0            0            0            0    196.51821    196.51767    0.2130099 
   90000       360000    9959.9534   -38042.012     278.4233  0.062434592   -28082.058    144.00252    -7.075037  0.061957665 -0.008809828   -7.0753137    196.43821     196.2361   -0.2162076 
   92000       368000     9881.989   -37910.804    276.24386  0.056060776   -28028.815    93.277476    1.9828002  -0.02036645 -0.00020728888    1.9829048    196.35821     196.4149 -0.062017631 
   94000       376000    9743.3002   -38112.116    272.36691 0.00049049079   -28368.816    432.28893   -1.6602516   0.01765674 0.00059435911   -1.6603456    196.27821    196.23081   0.14410674 
   96000       384000    9851.4365   -38161.418    275.38978   0.10898359   -28309.982    371.54657   -1.9248554  0.018409351 0.00011292779   -1.9249434    196.19821    196.14325 -0.0039424066 
   98000       392000    9951.5129   -38179.574    278.18735  0.039388174   -28228.061    288.13759   -3.8624399  0.041193152 0.00052857828   -3.8626596    196.11821    196.00789 -0.047201366 
  100000       400000    9881.6901   -38031.296     276.2355  0.049221954   -28149.606    211.96007    3.2975041 -0.032491053 -0.0011662658    3.2976644    196.03821    196.13247 -0.078367156 
  102000       408000     9774.318   -38242.262    273.23399 -0.051769317   -28467.944    530.96184   0.51545923 -0.0060129388 -0.0003629619   0.51549443    195.95821    195.97298  0.072643315 
  104000       416000    9811.6177   -38200.093    274.27668  -0.13156044   -28388.475    451.84052   -5.0701177  0.058976035 0.0042133206   -5.0704625    195.87821    195.73338  0.033545583 
  106000       424000    9867.0023   -38110.152    275.82492  0.056288132    -28243.15     304.8061    2.5845095 -0.030091365 -0.0029110683    2.5846863    195.79821     195.8721  -0.16520661 
  108000       432000     9936.922   -38206.277    277.77947 -0.060949473   -28269.355    330.95907    2.0260994  -0.02191245 -0.0015103028    2.0262184    195.71821    195.77614   0.10725775 
  110000       440000     9865.488   -38269.843    275.78258  -0.12001434   -28404.355    465.74809   -3.8620279  0.038729476 0.00026684274   -3.8622221    195.63821     195.5279 -0.064308152 
  112000       448000    9818.5389   -38301.431    274.47015   0.18103363   -28482.892      539.539   -3.2069342  0.034364899 0.0018597615   -3.2071188    195.55821    195.46662  -0.16046804 
  114000       456000    9778.1399   -38150.846    273.34083   0.14982735   -28372.706    432.78582    3.1698134 -0.036424526 -0.0041464675    3.1700253    195.47821    195.56882  0.012946701 
  116000       464000    9795.7636   -38215.589    273.83349  0.033814212   -28419.825    480.96169   -3.1549886  0.037028179  0.003047492   -3.1552074    195.39821     195.3081  0.019789188 
  118000       472000    9707.2483   -38159.123    271.35911  0.024336635   -28451.875    512.29914    9.0688035  -0.13052858 -0.011441613      9.06975    195.31821    195.57739   0.12033527 
  120000       480000    9871.7657   -38051.976    275.95807  0.044701871    -28180.21    240.00727    -7.980477   0.11113057 0.0093738259   -7.9812562    195.23821    195.01021  0.057973983 
  122000       488000    9883.4191   -38059.765    276.28383  -0.10355608   -28176.346     239.3922  -0.43560727  0.005852046 0.00082575183  -0.43564736    195.15821     195.1458  -0.33327163 
  124000       496000    9883.6171   -37969.568    276.28937 -0.044068418   -28085.951    147.91909    6.4530284 -0.090007376  -0.01826248    6.4536819    195.07821    195.26264   0.16801895 
  126000       504000    9875.6699   -38413.145    276.06721  0.098818122   -28537.475    592.90352   -8.4715445    0.1237636  0.015441297   -8.4724626    194.99821    194.75618   0.14432715 
  128000       512000    9801.7637    -38022.19    274.00122 -0.043517449   -28220.426    285.72843   0.19967593 -0.0028727118 -0.00030132278   0.19969682    194.91821    194.92396 -0.0065668861 
  130000       520000    9801.6831   -38013.382    273.99896  0.026624786   -28211.699     274.7074    5.2434513 -0.070512478 -0.0071134145    5.2439302    194.83821    194.98808   -0.1425257 
  132000       528000    9863.8045   -38117.302    275.73552  0.014771799   -28253.497    316.68069   -1.4841819  0.020389838 0.0036274182   -1.4843264    194.75821    194.71584   0.06940544 
  134000       536000    9924.8273   -38188.143    277.44137  -0.04702413   -28263.316     326.0255   -6.7989981  0.093080557 0.0084823495   -6.7996405    194.67821    194.48397  -0.17947335 
  136000       544000    9658.1768   -38070.504    269.98735 -0.0089167502   -28412.327    475.34551  -0.36162464 0.0049399047 6.8628142e-05  -0.36165838    194.59821    194.58792  -0.10764177 
  138000       552000    9788.6446   -38090.235    273.63448  0.036569793   -28301.591    364.04481    4.4150317 -0.063126171 -0.0042996849     4.415485    194.51821    194.64441   0.13770073 
  140000       560000    9846.9692   -38115.828     275.2649  -0.16865512   -28268.858    330.91203  -0.89813068  0.012685051 0.0016414281  -0.89822176    194.43821    194.41259 0.0062727534 
  142000       568000    9898.0062   -38304.401     276.6916 -0.067538549   -28406.394    466.55084  -0.15670866 0.0020971093 0.00030929073  -0.15672299    194.35821    194.35377  -0.22335695 
  144000       576000    9829.6868   -38150.937    274.78179  0.048624012    -28321.25    381.82134    1.3749484 -0.018840123 -0.0051131797     1.375087    194.27821    194.31754 -0.026144363 
  146000       584000    9921.1952   -38211.808    277.33984  0.027585288   -28290.613    353.91848   0.48007136 -0.0071736401 -0.0013325477    0.4801268    194.19821    194.21197   0.20803167 
  148000       592000     9758.892   -38193.539    272.80277 -0.011394424   -28434.647     496.2715   -7.3131007  0.097620437  0.027636088   -7.3138045    194.11821    193.90928   0.20473514 
  150000       600000    9741.6079   -38166.141     272.3196  0.065920236   -28424.534    485.10451    5.7100291 -0.081745808 -0.023323331    5.7106618    194.03821    194.20141  -0.17774815 
  152000       608000    9879.9998   -38066.463    276.18825  -0.03790436   -28186.463    248.51966   0.28444595 -0.0040379132 -0.00099994025   0.28447636    193.95821    193.96638  -0.11301696 
  154000       616000    9955.3685   -38067.227    278.29513  -0.10647361   -28111.858    173.56672   -1.8832276  0.026818734 0.0056830367   -1.8834271    193.87821    193.82444   0.13104896 
  156000       624000    9712.2702   -38290.193    271.49949  0.056497781   -28577.923    636.30186   -1.9111343  0.029068685 0.0052592276   -1.9113625    193.79821    193.74364 -0.093287974 
  158000       632000    9752.0212    -38080.96     272.6107 -0.015829186   -28328.939    392.33435   0.15294397 -0.0022485183 -0.00043437532   0.15296111    193.71821    193.72262  -0.20080601 
  160000       640000    9853.4363   -38249.313    275.44569  0.022638265   -28395.877    455.67741    4.9131114 -0.075449958 -0.014250076    4.9137114    193.63821    193.77864 -0.046556674 
  162000       648000    9791.0255   -38023.461    273.70104   0.15339375   -28232.436    291.53897  -0.41366287 0.0065772072 0.0017137589   -0.4137187    193.55821    193.54643   0.14624347 
  164000       656000    9909.3742   -38076.977    277.00939  0.070918501   -28167.603    230.59222    7.2160223  -0.12744572 -0.026730101    7.2171972    193.47821    193.68446 0.0040413713 
  166000       664000    9782.4018   -38183.812    273.45997 -0.093459903    -28401.41    460.71425  0.083658704 -0.0013507497 -0.00036393571    0.0836704    193.39821    193.40064  -0.12359618 
  168000       672000    9809.7484   -38203.974    274.22442  0.030648644   -28394.225    452.17322    6.2524942    -0.109724 -0.028293634    6.2535209    193.31821    193.49692  -0.20071796 
  170000       680000    9901.4744   -38231.763    276.78856  -0.03012081   -28330.289    391.49398    4.1973426  -0.07024548 -0.018647318    4.1979717    193.23821    193.35819    0.2329407 
  172000       688000     9661.636   -38108.999    270.08405 -0.082062452   -28447.363    509.97582   -6.2043593   0.10834754  0.031508776   -6.2053853    193.15821    192.98095  0.063065775 
  174000       696000    9784.8756   -38010.647    273.52912  -0.04473921   -28225.772    290.92412   -1.0476254  0.018735719 0.0033474102   -1.0477983    193.07821    193.04831  -0.48155342 
  176000       704000    9708.4813   -38306.066    271.39357   0.14209916   -28597.584    655.92354    8.6047147  -0.15220023 -0.031778216    8.6061193    192.99821    193.24414   0.10527863 
  178000       712000    9812.5694   -38348.506    274.30328 -0.022909887   -28535.937     596.3408    -6.321016   0.11445839  0.019071238   -6.3220809    192.91821    192.73762   0.31958024 
  180000       720000    9801.5804   -38217.245    273.99609   0.10889085   -28415.665    474.83783   -5.0811333  0.097032713  0.017110884   -5.0820885    192.83821    192.69305   -0.1064246 
  182000       728000    9805.2536    -38138.98    274.09877 -0.0015314173   -28333.726    395.22783    2.6039229 -0.047426985 -0.0093335876    2.6043715    192.75821    192.83266  -0.32467307 
  184000       736000    9760.0378   -37962.639     272.8348  0.016976114   -28202.601    264.30282    7.2352788  -0.13570364 -0.032480642    7.2366242    192.67821    192.88501   0.30079354 
  186000       744000    9799.7844   -38025.292    273.94589  0.092086532   -28225.508    284.26826   -10.091511   0.18877911  0.042455135   -10.093366    192.59821    192.30987  0.038838756 
  188000       752000    9678.3192   -38155.152    270.55042  -0.10251182   -28476.833    541.33168   0.82192832 -0.015592547 -0.0026535912   0.82208049    192.51821    192.54174  -0.32255441 
  190000       760000    9781.5044     -38117.4    273.43488 -0.039010011   -28335.895    393.90737     9.450629  -0.18555353 -0.033128583    9.4525084    192.43821    192.70832  0.040208312 
  192000       768000    9807.5821   -38197.878    274.16387  0.040851772   -28390.296    450.72059  -0.29769094 0.0057533556 0.00096267924  -0.29774809    192.35821    192.34974  0.069981741 
  194000       776000     10024.07   -38177.066    280.21562   0.10030461   -28152.996     213.4117    -6.204007   0.11665125  0.020631418   -6.2051379    192.27821    192.10096 0.0060457681 
  196000       784000    9834.3799   -38205.532    274.91298   0.16778158   -28371.152    429.85364   -2.4243368   0.04964343 0.0072083773   -2.4248558    192.19821    192.12897  -0.12704745 
  198000       792000    10001.627   -38172.334    279.58826  0.041012232   -28170.707    231.25989   -5.1666089    0.1059429  0.023818442   -5.1677499    192.11821     191.9706 -0.059749813 
  200000       800000      9954.07   -38124.468    278.25883   0.14906712   -28170.398    232.26066   0.24004665 -0.004812939 -0.00040133241   0.24009523    192.03821    192.04511  0.098291325 
  202000       808000    9887.0537   -37948.388    276.38544 -0.041065531   -28061.334    125.71151   -4.9142197   0.09940455  0.014373574   -4.9152459    191.95821    191.81781  -0.20074004 
  204000       816000    9850.7977   -38023.549    275.37193  -0.12121249   -28172.751    233.86559    1.0793317  -0.02253623 -0.002838814    1.0795707    191.87821    191.90909 -0.029519431 
  206000       824000     9922.526   -38233.856    277.37704  0.050098737    -28311.33    371.30367    2.6537475 -0.055883912 -0.007197709    2.6543457    191.79821    191.87409  0.047900245 
  208000       832000    9836.3115   -37986.091    274.96698  0.014968242   -28149.779    210.07973    -3.064444  0.064437553 0.0060206702   -3.0651273    191.71821    191.63067  0.047676259 
  210000       840000    9847.7873   -38058.092    275.28777  -0.15462294   -28210.304    270.99266   -2.4207958  0.051257077 0.0025721743   -2.4213398    191.63821    191.56907   0.14241533 
  212000       848000    9847.2675   -38225.426    275.27324  0.073052798   -28378.159    437.08898   -2.2541246  0.048254919 0.0047220339    -2.254646    191.55821    191.49383 -0.056672023 
  214000       856000    9803.9622   -38118.177    274.06268  0.015991666   -28314.215    375.23053    2.0569525 -0.045204242 -0.0048305168    2.0574548    191.47821    191.53703  -0.13988735 
  216000       864000    9801.8404   -38146.712    274.00336 0.0066338178   -28344.872    405.87781   -2.5884224  0.056673726 0.0050936993   -2.5890478    191.39821    191.32428  -0.10976164 
  218000       872000    9733.2736   -38098.111    272.08662  0.021106949   -28364.837    427.23121   0.47203296 -0.010205833 -0.00062717534   0.47214369    191.31821    191.33174   0.08935322 
  220000       880000    9848.6952   -38202.099    275.31315  0.024707151   -28353.404    412.04731   0.70944722 -0.015712584 -0.00072240268   0.70962157    191.23821    191.25852 -0.065013252 
  222000       888000    9831.5532   -38303.662    274.83396 -0.027839394   -28472.109    535.31475   -1.0319423  0.023007561 0.0028853739   -1.0322028    191.15821    191.12876  0.020549246 
  224000       896000    10012.856   -38288.013    279.90215 -0.021123278   -28275.157    334.63479   -2.7145802  0.059437479 0.0054466402   -2.7152363    191.07821    191.00067  -0.05985535 
  226000       904000    9755.2062   -38014.198    272.69973  0.092289473   -28258.992    319.43388   -2.3295208  0.053508504 0.0076004891   -2.3301477    190.99821    190.93167 -0.099194142 
  228000       912000     9852.176   -38121.426    275.41046   0.10108776    -28269.25    331.98859    1.9308786 -0.045527516 -0.0057234578    1.9314237    190.91821    190.97343  -0.14011705 
  230000       920000    9836.5894   -38146.364    274.97474  -0.02998636   -28309.774    371.02901   -5.2452253   0.12225896  0.010244758   -5.2466599    190.83821    190.68834 -0.019316823 
  232000       928000    9871.5699   -38162.156     275.9526  0.045828655   -28290.586     353.3183    3.8309231 -0.097374013 -0.0064413708    3.8321659    190.75821    190.86774  0.010109949 
  234000       936000    9922.6619   -38283.506    277.38084  -0.12263078   -28360.844    419.68595   -4.4682813   0.11164521 0.0063357794   -4.4696804    190.67821    190.55054  0.042944166 
  236000       944000     9852.546   -38195.671     275.4208  -0.18845897   -28343.125    406.49851    2.1895596 -0.053058539 -0.0033816321     2.190205    190.59821    190.66083  -0.17763251 
  238000       952000    9871.5184   -38122.623    275.95116 -0.039361119   -28251.105    312.21995    4.5606131   -0.1174312 -0.0095422364    4.5621347    190.51821     190.6486 -0.055993971 
  240000       960000    9775.0504   -38155.853    273.25447  0.062821323   -28380.803    442.09797  -0.87375729  0.022027399 0.0016791675  -0.87403651    190.43821    190.41328   0.12032573 
  242000       968000    9670.7017   -38064.539    270.33747 -0.092087531   -28393.837    457.70039  -0.54576058  0.013934936 0.00085819922  -0.54593912    190.35821    190.34265    0.1370722 
  244000       976000    9930.1115   -38155.376    277.58909  0.069099862   -28225.265    285.73056    2.3231785 -0.059157276 -0.0029273247    2.3239335    190.27821    190.34465  -0.15463078 
  246000       984000    9920.0389   -38148.441    277.30751  0.018840546   -28228.402    290.91874     7.351635  -0.18294816 -0.010717788    7.3539188    190.19821    190.40836  0.060036539 
  248000       992000    9837.2814   -38077.243    274.99409 -0.084448259   -28239.961    302.28097   -12.282571   0.32084278  0.020001153   -12.286777    190.11821     189.7672   0.10664133 
  250000      1000000     9885.121   -38233.611    276.33141  0.032696268    -28348.49    409.09025  -0.49513625  0.013640912 0.00093974304  -0.49532501    190.03821     190.0241  -0.36330374 
  252000      1008000    9709.7153   -38327.097    271.42807 -0.030533864   -28617.381    676.57356    2.7376191 -0.072732721 -0.0046325181     2.738589    189.95821    190.03649   0.17569938 
  254000      1016000    9876.8426   -38124.655    276.09999 -0.017140067   -28247.812    310.71431   -1.1901355   0.03305936 0.0022416953   -1.1905967    189.87821    189.84423   0.12828145 
  256000      1024000    9786.3324   -38257.067    273.56985 -0.069529628   -28470.734    531.11169   -5.6034975   0.16127936 0.0098679481   -5.6058266    189.79821    189.63808  -0.15734024 
  258000      1032000    9731.7125   -38194.485    272.04299   0.02712185   -28462.773    522.92041    5.2761629    -0.142012 -0.0031230988    5.2780747    189.71821    189.86905  -0.18097747 
  260000      1040000    9844.3305    -38419.94    275.19114   0.09765732    -28575.61     632.9776    1.2791006 -0.034288769 -0.0011451263    1.2795606    189.63821    189.67481  0.065400215 
  262000      1048000     9794.884   -38249.142     273.8089  0.036727669   -28454.258    513.63039   -1.9884928  0.054005745 0.00083098503   -1.9892262    189.55821    189.50141 -0.077070719 
  264000      1056000    9793.9443   -38355.662    273.78263 -0.039559846   -28561.717     622.4522   -2.3783492  0.064931268 0.0011147762   -2.3792356    189.47821    189.41027 -0.071596322 
  266000      1064000    9825.2349   -38323.113    274.65734  0.089019299   -28497.879     555.8248    6.5278342  -0.19105068 0.0010008964    6.5306295    189.39821    189.58484  0.020650011 
  268000      1072000    9692.3669   -38340.864    270.94311  0.018538117   -28648.497     708.6648   -2.8949805  0.082164019 0.00012207575   -2.8961462    189.31821     189.2355  -0.17881099 
  270000      1080000    9734.4834   -38417.549    272.12045 -0.0096775396   -28683.066    742.40757    6.2558168  -0.17593835 -0.0031296465    6.2582912    189.23821    189.41706   -0.2262192 
  272000      1088000    9861.1336   -38308.043    275.66086 -0.00036558278   -28446.909    508.23362    4.1464048  -0.12259898 0.0013899675    4.1482171    189.15821    189.27677   0.13796455 
  274000      1096000    9756.2131   -38241.407    272.72788  -0.03809855   -28485.194    547.35556   -9.5447666   0.28092275 0.0066539674   -9.5489021    189.07821    188.80542   0.16463132 
  276000      1104000    9823.4173    -38163.96    274.60653  0.014923698   -28340.543    401.67862   0.13732461 -0.0039659824 -0.00016632395   0.13738197    188.99821    189.00217  -0.23999064 
  278000      1112000     9760.253   -38270.896    272.84081  0.070294292   -28510.643    572.18698    7.3653297  -0.22568291 -0.003270176    7.3687872    188.91821    189.12879 -0.059422966 
  280000      1120000    10001.972   -38413.843    279.59789 0.0051386498   -28411.871    469.90386    1.2181416  -0.03719787 0.00022499596    1.2187094    188.83821    188.87307  0.028469646 
  282000      1128000    9863.2585   -38341.794    275.72026 0.0026907228   -28478.535    540.25313    1.7992652 -0.057288435 -0.00031371992     1.800177    188.75821    188.80968  -0.21027834 
  284000      1136000    9953.7497   -38299.025    278.24988 -0.087088043   -28345.275    408.44796    2.3125378 -0.074124833 -0.001341331    2.3137258    188.67821    188.74436 -0.089799272 
  286000      1144000    9829.4066    -38369.21    274.77395 -0.064716336   -28539.803    599.20977   -1.1212391  0.034755897 0.0011878549   -1.1217783    188.59821     188.5662   0.31059464 
  288000      1152000    9746.1852   -38509.562    272.44756   0.11168661   -28763.377    818.82643   -2.7764682  0.089994955 0.0038617949    -2.777929    188.51821    188.43888 -0.084296889 
  290000      1160000    9870.8292   -38314.813    275.93189 -0.013804704   -28443.984    506.42314   -4.0451915   0.13053783 -0.00029094453   -4.0472972    188.43821    188.32261  -0.48850901 
  292000      1168000    9881.1211   -38351.241    276.21959 -0.041504554    -28470.12    529.86943    9.7916382  -0.31737442 -0.0086389982    9.7967841    188.35821    188.63816  0.085706375 
  294000      1176000    9737.9898   -38198.388    272.21846   0.10974352   -28460.398    519.63882   -3.0843976  0.096441454 0.0040115475   -3.0859076    188.27821    188.19008    0.4093075 
  296000      1184000    9750.8155   -38216.128      272.577  0.062334245   -28465.312    523.08019   -12.072121    0.3965013 0.0080035373   -12.078634    188.19821    187.85315  -0.16463694 
  298000      1192000    9752.9422   -38195.537    272.63645  -0.12799451   -28442.594    505.13384    2.3306122 -0.076396218 -0.0021110354    2.3318649    188.11821    188.18487  -0.40701297 
  300000      1200000     9851.073   -38212.991    275.37962 -0.044839647   -28361.918    423.07261    6.8427462    -0.221444 -0.0048388822    6.8463301    188.03821    188.23386   0.10855728 
  302000      1208000    9745.1817   -38032.986    272.41951  0.093431767   -28287.805    348.12839   -9.8125498   0.32582858  0.013429781   -9.8179671    187.95821    187.67774   0.27277586 
  304000      1216000     9814.511   -38231.694    274.35756  0.031456401   -28417.183    477.79863   -4.2111679   0.14024904 0.0074160068   -4.2135092    187.87821    187.75786  -0.37031862 
  306000      1224000     9900.407   -38212.943    276.75872  -0.11949855   -28312.536     373.0354    5.1002236  -0.16355426 -0.0046401974    5.1028475    187.79821    187.94405  -0.13908449 
  308000      1232000     9664.256   -38194.406    270.15729  0.035563172    -28530.15    589.03234   0.32185086 -0.010440514 -0.0005022546   0.32202055    187.71821    187.72745   0.13058279 
  310000      1240000    9743.8181   -38216.274    272.38139 -0.036052929   -28472.456    535.50812   -3.8722044   0.12591014 0.0069150877   -3.8742571    187.63821    187.52756 -0.093800974 
  312000      1248000    9907.3531   -38439.836    276.95289  0.053049385   -28532.483    590.44226   -5.5517753   0.18515787   0.01006245   -5.5548711    187.55821    187.39954 -0.062478442 
  314000      1256000    9946.4829   -38148.791    278.04674 -0.063736877   -28202.308    264.96216    7.6245521  -0.24460965 -0.0063407736    7.6284775    187.47821    187.69621 0.0015238803 
  316000      1264000    9811.8578   -38219.947    274.28339 -0.026964071   -28408.089    470.53793  -0.18651785 0.0062946997 0.00038238171  -0.18662443    187.39821    187.39292   0.27128328 
  318000      1272000    9877.3425    -38430.94    276.11397  -0.03250299   -28553.597    613.89014   -3.2353277   0.10855606  0.011755111   -3.2371697    187.31821    187.22576 -0.044427279 
  320000      1280000     9949.892   -38257.231    278.14204  0.094162902   -28307.339     366.4374   -2.7203786  0.094028942 0.0059492018   -2.7220096    187.23821    187.16048  -0.23961545 
  322000      1288000    9803.4934   -38342.311    274.04957  0.069654473   -28538.818     599.2456   0.89553436 -0.029554698 -0.0017460008   0.89602361    187.15821    187.18385 -0.019587077 
  324000      1296000    9725.9148   -38195.257    271.88092  -0.02631699   -28469.342    532.45049    1.9015991 -0.066546359 -0.0031161497    1.9027657    187.07821    187.13261   0.20824354 
  326000      1304000    9851.3476     -38271.7     275.3873 -0.010917481   -28420.352    478.90387   -4.6306068   0.16270858   0.01115377    -4.633478    186.99821    186.86586  -0.15633857 
  328000      1312000    10188.279   -38203.225    284.80597  0.044936352   -28014.946    76.492613    6.5351082  -0.23305736 -0.016545656    6.5392835    186.91821    187.10509 0.00012170601 
  330000      1320000    9886.8821   -38125.095    276.38064 -0.071086287   -28238.213    298.25277    6.6050901  -0.23522898 -0.018401258     6.609303    186.83821    187.02709 -0.069017307 
  332000      1328000    9865.2262    -38186.86    275.77526 -0.017174401   -28321.634    383.12336   -4.0297234   0.14515634 0.0077959601   -4.0323445    186.75821    186.64304  0.017071094 
  334000      1336000    9805.0563   -38209.283    274.09326 -0.048580618   -28404.226    466.41829   -2.1901644  0.078122202 0.0057714522   -2.1915648    186.67821    186.61563 -0.034476746 
  336000      1344000    9797.2686   -38307.979    273.87556 -0.086167333   -28510.711    572.93124   -2.8407904    0.1047371 0.0090667373    -2.842735    186.59821    186.51703  0.091934247 
  338000      1352000    9803.5125   -38255.287     274.0501  0.077428772   -28451.774    511.61364   -3.2176667   0.11398346  0.012042761   -3.2197074    186.51821    186.42626 -0.036490087 
  340000      1360000    9987.0307   -38336.662    279.18022  -0.10663757   -28349.632    409.91536    3.9675369  -0.14759269 -0.014128495    3.9703063    186.43821    186.55169 -0.067858513 
  342000      1368000    9777.6541   -38287.224    273.32725 -0.0090811316    -28509.57    569.43745    2.5261727 -0.094276649 -0.012010759    2.5279598    186.35821    186.43048  0.071331261 
  344000      1376000    9795.1486   -38058.297     273.8163 -0.00019230952   -28263.149    326.08067  -0.60477677  0.022619386 0.0018735213  -0.60520252    186.27821    186.26096 -0.099082015 
  346000      1384000    9801.9148   -38254.692    274.00544  -0.11656146   -28452.777    515.78462   0.45721653 -0.017169355 -0.0012155503    0.4575404    186.19821    186.21132 -0.018132347 
  348000      1392000    9757.0544   -38109.058     272.7514 -0.066746067   -28352.003    413.36859   0.21989835 -0.0076564608 -0.00098025051   0.22003378    186.11821    186.12454  -0.15204257 
  350000      1400000    9851.0154   -38178.172    275.37801 -0.0076920558   -28327.157    390.28097   0.79497589    -0.029373 -0.0023808897   0.79552191    186.03821    186.06098  0.064390243 
  352000      1408000     9865.454   -38277.476    275.78163 -0.050649157   -28412.022    473.03186  -0.35169326  0.012921009 0.0015435372  -0.35193392    185.95821    185.94819  -0.11680923 
  354000      1416000    9737.2812   -38152.226    272.19866  -0.15327884   -28414.945    479.62793   -2.1139581  0.080020791 0.0060906327   -2.1154808    185.87821    185.81781  -0.11334984 
  356000      1424000    9918.4569   -38290.782    277.26329  -0.15740367   -28372.325    435.46964    2.6392411 -0.098667281 -0.011312959     2.641109    185.79821    185.87371 -0.0012654263 
  358000      1432000    9798.8213   -38135.181    273.91896   0.13457448    -28336.36    398.47333   -1.6275618  0.064312866 0.0065436777   -1.6288451    185.71821    185.67171  0.015412612 
  360000      1440000    9917.4537   -38106.801    277.23525   0.13715008   -28189.347    249.73646   -3.8297795   0.15231987  0.015191248   -3.8328374    185.63821    185.52874 -0.018227156 
  362000      1448000     9889.031   -38128.461    276.44071  -0.12762537    -28239.43     305.8954    1.4606264  -0.05777328 -0.005362446    1.4617784    185.55821    185.60001 0.0018886018 
  364000      1456000    9848.7212   -38220.226    275.31388 -0.075449162   -28371.505    430.19098   -8.0076125     0.305832  0.028214056   -8.0135003    185.47821    185.24929  -0.13970431 
  366000      1464000    9867.8396   -38123.239    275.84832 -0.012031631   -28255.399    316.82055    2.5668013  -0.09958729 -0.0091267634    2.5687487    185.39821    185.47164  -0.11619086 
  368000      1472000    9855.6732   -38162.593    275.50822 -0.040376447    -28306.92    370.15041    1.4694875 -0.058469943 -0.0049905939    1.4706587    185.31821    185.36027   0.15860669 
  370000      1480000     9916.285   -38224.669    277.20258  0.078122347   -28308.384    368.92026   -1.4281223   0.05712978 0.0059192655   -1.4292768    185.23821    185.19741 -0.046913471 
  372000      1488000    9795.1459   -38418.847    273.81622 0.0064681193   -28623.701    681.27615    6.3422279  -0.25771087 -0.021392576    6.3474977    185.15821    185.33961   -0.2570868 
  374000      1496000    9767.5995   -38416.023    273.04618  -0.10296061   -28648.424    707.84089    4.1359569  -0.16830883 -0.017023148     4.139415    185.07821    185.19652   0.10918327 
  376000      1504000     9923.228   -38306.023    277.39666 -0.052127718   -28382.795    444.60307  -0.76819081  0.030448178 0.0027008267  -0.76879874    184.99821    184.97628   0.34736283 
  378000      1512000    9990.3875    -38201.85    279.27406  0.086436454   -28211.462    270.71818    -8.058919   0.33049031  0.031968892   -8.0657561    184.91821     184.6878  -0.33211085 
  380000      1520000    9709.6062    -38240.94    271.42502 8.917783e-05   -28531.334    593.60657     3.500189  -0.14148312 -0.014546021    3.5030775    184.83821    184.93834  -0.26977598 
  382000      1528000    9868.8712   -38263.129    275.87716 -0.042416362   -28394.257    454.30221    2.9981968  -0.12343233   -0.0105814    3.0007552    184.75821    184.84399   0.19257233 
  384000      1536000    9913.2239    -38314.49    277.11701  0.058883253   -28401.266    459.77888   -3.6408661   0.15197197  0.010831254   -3.6440525    184.67821    184.57413   0.24907498 
  386000      1544000    9896.9562   -38164.187    276.66225 -0.012312722   -28267.231    325.71925   -5.1747179   0.21961126  0.015968842   -5.1794005    184.59821    184.45027  -0.25741953 
  388000      1552000    9702.7601   -38217.499    271.23364  -0.08874559   -28514.739    575.31458   0.70346444 -0.028476033 -0.0027571075   0.70404595    184.51821    184.53837   -0.1681016 
  390000      1560000    9855.1571   -38136.286    275.49379  -0.10050799   -28281.129     343.8498     1.305407 -0.056181903 -0.0049451209    1.3066247    184.43821    184.47558   0.23583497 
  392000      1568000    9962.1959   -38187.233    278.48598   0.03876491   -28225.037    285.54076    -5.064912   0.21294259  0.024324203   -5.0694448    184.35821    184.21341  -0.11205087 
  394000      1576000    9814.4383   -38269.053    274.35553  -0.01008867   -28454.614    516.80958    3.2316902  -0.13953516 -0.013957364    3.2347313    184.27821    184.37067  -0.20499108 
  396000      1584000    9820.2679   -38327.714    274.51849  0.024675004   -28507.447    569.37723    1.9535005 -0.084612281 -0.0058705907    1.9553409    184.19821    184.25412   0.21084544 
  398000      1592000    9905.6219   -38275.381     276.9045  0.051304782    -28369.76    432.24398   -4.0179434   0.17576357  0.017480762   -4.0218239    184.11821    184.00334  -0.12152989 
  400000      1600000    9850.4839   -38189.341    275.36315  0.043731418   -28338.857    398.88404   -3.4789298   0.15010677 0.0089786431   -3.4821783    184.03821    183.93876   -0.0635917 
  402000      1608000    9802.7072   -38311.255    274.02759   0.02369504   -28508.548    567.28806    9.8570563  -0.43825628 -0.021061454    9.8668167    183.95821    184.24016  0.035853632 
  404000      1616000    9786.9222   -38114.417    273.58633 -0.032720961   -28327.494    386.96424   -9.1273124   0.40135506  0.020892282   -9.1361564    183.87821    183.61722   0.04037542 
  406000      1624000    9987.5013    -38318.65    279.19338  -0.13124843   -28331.149    391.89363   0.90474005 -0.038480422 -0.0035398109   0.90556492    183.79821    183.82412  -0.19488754 
  408000      1632000    9961.7198   -38354.063    278.47267   0.13979704   -28392.343      449.586    2.3770381  -0.10638067 -0.0089482198    2.3794342    183.71821    183.78623 -0.065616317 
  410000      1640000    9817.2777   -38232.768     274.4349  0.084143922    -28415.49    476.38422   0.49168913 -0.022063071 -0.0024458585   0.49218997    183.63821    183.65231   0.24691275 
  412000      1648000    9852.7645   -38279.242    275.42691  -0.04395535   -28426.477     488.4473    -3.516096   0.15981613  0.018168104   -3.5197731    183.55821    183.45768  -0.19181583 
  414000      1656000    9796.1945   -38473.227    273.84553 -0.041684905   -28677.032    736.07921    7.7541088  -0.35612387 -0.033515904    7.7623547    183.47821    183.70003  -0.26017169 
  416000      1664000    9791.5364   -38110.773    273.71532 -0.028379092   -28319.237    380.43196   -1.3887547  0.062928539  0.008531175   -1.3902058    183.39821    183.35853   0.20048772 
  418000      1672000    9815.2228   -38311.509    274.37746  0.012454742   -28496.287    558.08087   -1.9810973  0.090330321  0.011922817   -1.9831915    183.31821    183.26159 -0.022857815 
  420000      1680000    9809.2209   -38205.505    274.20968   -0.1715307   -28396.284    457.31959    1.0134632 -0.045608454 -0.0045670665    1.0144992    183.23821    183.26724 -0.079863934 
  422000      1688000    9820.3832    -38273.61    274.52171   0.03302138   -28453.226    512.94622   -2.2872178   0.10337399  0.013263556   -2.2895911    183.15821    183.09283  -0.08049213 
  424000      1696000    9902.1483   -38318.516     276.8074   0.14993161   -28416.368    472.97786   -1.9519615  0.086469355 0.0094685227   -1.9538987    183.07821    183.02242   -0.1302817 
  426000      1704000    9917.9355   -38186.021    277.24872  0.015485689   -28268.085    326.86467    1.4683346 -0.066042159 -0.0068803728    1.4698352    182.99821    183.04024    -0.115745 
  428000      1712000    9848.8352   -38179.223    275.31707 -0.049384807   -28330.388     389.9777     6.338634  -0.28008629 -0.028912541    6.3448849    182.91821    183.09953   0.12715268 
  430000      1720000    9896.0838   -38389.783    276.63787 -0.059895894   -28493.699    550.20328   -10.143395   0.45246332  0.057016192   -10.153642    182.83821    182.54815 -0.048905039 
  432000      1728000    9842.5108   -38346.078    275.14027  0.019260278   -28503.567      561.587   -2.9346983   0.13353726  0.016938683   -2.9377837    182.75821    182.67431 -0.044719832 
  434000      1736000    9915.7166   -38501.211    277.18669   0.10149202   -28585.494    642.57434    3.1651378  -0.14658269 -0.015676442     3.168569    182.67821    182.76878  0.012879724 
  436000      1744000     9832.253   -38350.021    274.85352 -0.093753251   -28517.768    577.71998   0.66670903 -0.031506221 -0.0025943213   0.66745809    182.59821    182.61732 -0.052872667 
  438000      1752000    9936.5441   -38221.696    277.76891 -0.029463488   -28285.151    346.93298   0.95551732 -0.044826494 -0.0051185006   0.95658191    182.51821    182.54558 -0.012320081 
  440000      1760000    9890.6915   -38298.621    276.48713  0.030151201   -28407.929    467.41869   -1.3736355  0.065547671 0.0088273414   -1.3752268    182.43821    182.39896 -0.041587412 
  442000      1768000    9877.1415   -38284.432    276.10835   0.02167393   -28407.291    469.22575   -1.6591596   0.08087349  0.011248199   -1.6611676    182.35821    182.31079 -0.030209991 
  444000      1776000    9818.5863   -38262.223    274.47148 0.00029323835   -28443.637    505.14766    1.8578802 -0.092601471 -0.0092413397    1.8602094    182.27821     182.3314 -0.018126823 
  446000      1784000    9911.0717    -38218.08    277.05684   0.14044048   -28307.009      366.265   -7.4416109   0.37349726  0.036884218   -7.4510693    182.19821    181.98536  0.087066883 
  448000      1792000    9904.1366   -38271.639    276.86298  0.079881683   -28367.503    426.15783   -5.6117426   0.27246058   0.02732021   -5.6184193    182.11821    181.95772 -0.0097696354 
  450000      1800000    9860.6529   -38180.512    275.64742 -0.017495962   -28319.859    382.50893    2.5865233  -0.12934472 -0.014223552    2.5897944    182.03821    182.11224  -0.11810286 
  452000      1808000    9826.9346   -38199.952    274.70485   0.14822484   -28373.017    432.65375    7.3409792  -0.36928212  -0.04966783    7.3504293    181.95821    182.16826  0.055228346 
  454000      1816000    9773.9377   -38429.471    273.22336 -0.052865779   -28655.534    714.80304   -7.1564782   0.36051311  0.054020665   -7.1657566    181.87821    181.67351 -0.049230052 
  456000      1824000    9845.4915   -38382.549     275.2236  0.044497738   -28537.058    595.36728    5.1742948  -0.25586793 -0.038305981    5.1807589    181.79821    181.94627  -0.17414212 
  458000      1832000    9817.5169   -38346.827    274.44159   0.08246966    -28529.31    590.48491   0.52119225 -0.026522408 -0.0033651995    0.5218775    181.71821    181.73316   0.19245632 
  460000      1840000    9922.1714   -38188.774    277.36713  0.075117923   -28266.603    326.10063   -9.4743476   0.49171195  0.077133489   -9.4874124    181.63821    181.36718  0.046713683 
  462000      1848000    9824.9205   -38241.263    274.64855 -0.044280264   -28416.342    478.09707    5.1169621    -0.265915  -0.03788309    5.1240069    181.55821    181.70465 -0.080388429 
  464000      1856000    9816.2348   -37964.167    274.40575  0.061501844   -28147.933    210.74751    9.9146102  -0.50365559 -0.065379973      9.92761    181.47821     181.7619  0.041014186 
  466000      1864000    9835.4501   -38279.285     274.9429 -0.082849064   -28443.835    504.61718  -0.97686497   0.05115581 0.0065091933  -0.97822515    181.39821     181.3703  0.047626424 
  468000      1872000    9871.5911   -38184.308    275.95319  0.020524337   -28312.717    374.05044   -2.2975566   0.11675589   0.01792828   -2.3005912    181.31821    181.25252  0.021472605 
  470000      1880000    9775.1605   -38212.207    273.25754 -0.021194908   -28437.047    499.01845   -1.1209842  0.056966328 0.0069196166   -1.1224521    181.23821    181.20618  -0.10222622 
  472000      1888000    9789.8033   -38227.545    273.66687  0.060281558   -28437.741    498.60729   0.14248035 -0.0072891218 -0.00088625076   0.14266943    181.15821    181.16233 -0.033109854 
  474000      1896000    9938.2343   -38318.717    277.81615  0.061075138   -28380.483    437.63119    1.3296485 -0.069072885 -0.011032978    1.3314871    181.07821    181.11629  -0.17991359 
  476000      1904000    9771.7847   -38254.182    273.16317 0.0012499221   -28482.397    541.79409    5.8676638  -0.30394788 -0.045047309    5.8757035    180.99821    181.16613   0.22599339 
  478000      1912000    9928.8976   -38336.658    277.55515 -0.069211052   -28407.761    468.14255    2.1367767  -0.10941454 -0.015785592    2.1396344    180.91821    180.97938 -0.0046110128 
  480000      1920000    9837.2669   -38295.863    274.99368 -0.0057334073   -28458.596    518.97461    0.3397412 -0.017826652 -0.0025292922   0.34021798    180.83821    180.84797  -0.20936414 
  482000      1928000    9868.7133   -38365.981    275.87274 -0.021997637   -28497.267    557.73893    2.7090094  -0.14394952 -0.021794329    2.7129188    180.75821    180.83576 -0.041675542 
  484000      1936000    9866.9033   -38332.377    275.82215 -0.0073680523   -28465.474    525.56555   -1.6251871  0.085122251  0.011970424   -1.6274588    180.67821    180.63175 -0.077711268 
  486000      1944000    9948.9485    -38420.07    278.11566  0.080980862   -28471.121     529.4242   -2.2150694   0.11804849   0.01663999   -2.2182752    180.59821    180.53487  -0.28268576 
  488000      1952000     9845.347   -38385.519    275.21956 -0.080633099   -28540.172    600.69849    1.5867673 -0.083136382 -0.011308567     1.588984    180.51821    180.56365   0.17843423 
  490000      1960000    9805.4819   -38385.337    274.10516  0.021363532   -28579.855    639.03563   -4.3096617   0.22833361  0.033167895   -4.3158337    180.43821    180.31494   0.27537121 
  492000      1968000    9884.0494   -38272.291    276.30146  0.013744883   -28388.241    448.19859   -1.7149195   0.09144627 0.0097428349   -1.7173835    180.35821    180.30918  -0.32237821 
  494000      1976000     9757.398   -38220.703      272.761  0.036643596   -28463.305    521.75675    4.7954695  -0.25500674 -0.029461568    4.8023353    180.27821    180.41546  -0.19846424 
  496000      1984000    9869.8481   -38274.099    275.90447 -0.096034884   -28404.251    466.76956   -2.9450774    0.1553083  0.017445033   -2.9492212    180.19821    180.11399    0.2825381 
  498000      1992000    9718.5022   -38184.363     271.6737 0.0010796632   -28465.861    525.39497   -7.1249625   0.37789584  0.041733653   -7.1350989    180.11821    179.91439   0.10239034 
  500000      2000000    9898.4582   -38225.705    276.70424  -0.10805819   -28327.247    389.79387  -0.46284254  0.024961422  0.002864697  -0.46352399    180.03821    180.02501  -0.43588158 
  502000      2008000      9815.01   -38218.033    274.37151 -0.010912856   -28403.023    463.49588     11.06623  -0.61346478 -0.055259122    11.083359    179.95821    180.27492  0.022408656 
  504000      2016000    10034.647   -38191.284    280.51129 -0.010755548   -28156.637    218.97798   -5.2806023   0.29370883  0.032251013   -5.2888624    179.87821    179.72714   0.24039737 
  506000      2024000    9790.0645   -38359.142    273.67417 -0.022155075   -28569.078    628.28155    1.0166212  -0.05577929 -0.0063067175    1.0181698    179.79821    179.82734  -0.18895992 
  508000      2032000    9713.0597   -38214.568    271.52156 -0.012935944   -28501.509     563.6106    7.3046795  -0.40476241 -0.052280633    7.3160719    179.71821    179.92728  0.055252106 
  510000      2040000    9811.2133   -38306.984    274.26537  0.070912404    -28495.77    554.54291   -1.3250635  0.075752962 0.0083825537   -1.3272536    179.63821    179.60033  0.043947153 
  512000      2048000     9769.954   -38248.979      273.112  0.053498194   -28479.025    538.55731    1.4958337 -0.085813457 -0.0097469022    1.4983249    179.55821    179.60106   -0.1248051 
  514000      2056000    9863.0826   -38233.907    275.71534   0.09766292   -28370.825    429.40788   -6.3548337   0.36191688    0.0375157   -6.3652417    179.47821    179.29639  -0.11473072 
  516000      2064000    9835.7157   -38193.732    274.95032  0.030762934   -28358.016    419.26585   -3.3276468   0.18829099  0.025341654    -3.333066    179.39821    179.30302  -0.10139016 
  518000      2072000    9841.9997   -38235.214    275.12599 -0.023242415   -28393.215    456.37161    5.4724336  -0.30887108 -0.043225423    5.4813137    179.31821    179.47486  0.059984221 
  520000      2080000    9777.6739   -38219.282     273.3278 -0.013162172   -28441.608    502.30497    1.1673741 -0.064809979 -0.0079505277    1.1691988    179.23821    179.27166  0.091075675 
  522000      2088000    9788.7218   -38326.829    273.63664  0.034403909   -28538.107    598.07484    1.6299623 -0.094675057 -0.013516056    1.6327655    179.15821     179.2049  -0.11467398 
  524000      2096000    9806.3926   -38353.856    274.13062  0.013707798   -28547.463    607.37806    1.5004944 -0.086161739 -0.010693986    1.5030042    179.07821    179.12119  -0.10133691 
  526000      2104000    9771.0038   -38291.674    273.14135    0.0395805   -28520.671    580.31995    4.9421049  -0.29560753 -0.035164157    4.9510626    178.99821    179.13971 0.0020091437 
  528000      2112000     9778.637   -38375.505    273.35473 -0.010082301   -28596.868    656.82217   -2.4493522   0.14239698  0.019637941   -2.4535665    178.91821    178.84815  -0.11476826 
  530000      2120000    9829.5678   -38333.186    274.77846    0.1458168   -28503.618    564.18103  -0.17893766  0.010481185 0.0014778231  -0.17925045    178.83821    178.83313  -0.14066141 
  532000      2128000    9814.4358   -38248.339    274.35546 -0.042215746   -28433.904    496.48686    1.8646186  -0.10998272 -0.014201482    1.8679133    178.75821    178.81162  0.020274952 
  534000      2136000    9919.0387   -38381.019    277.27955  -0.13506512    -28461.98    524.93948   -2.6494669   0.15534229  0.019817167    -2.654091    178.67821    178.60242  0.046963108 
  536000      2144000    9819.4986   -38167.548    274.49698  0.023247685   -28348.049    407.85904   -11.556243   0.67751156  0.071343934   -11.576306    178.59821     178.2675  0.038938562 
  538000      2152000    9908.1584   -38167.069     276.9754 -0.054842997   -28258.911      320.024    1.0143685 -0.059646102 -0.0073337761    1.0161471    178.51821    178.54728   -0.2851241 
  540000      2160000    9936.1162   -38258.595    277.75694 -0.033437263   -28322.479     380.6573      2.89211  -0.17248746 -0.019440912    2.8973143    178.43821    178.52103 -0.088039602 
  542000      2168000    9780.9341   -38383.429    273.41894  0.037066774   -28602.495    660.15732   0.10244445 -0.0059755506 -0.00081292842   0.10262179    178.35821    178.36118   0.21523413 
  544000      2176000    9856.5071   -38108.281    275.53153 -0.088538824   -28251.773      314.586   -6.6390096   0.39053244  0.058341846   -6.6507419    178.27821    178.08823 -0.032338215 
  546000      2184000    9804.9762   -38310.944    274.09102  0.047125563   -28505.968    565.82911   -1.7560961   0.10340845  0.015104862    -1.759203    178.19821    178.14799  -0.20320219 
  548000      2192000    9877.9615   -38290.834    276.13127  0.095994991   -28412.872    474.30233    2.0025271  -0.12083723 -0.016814085      2.00624    178.11821    178.17557  0.063102513 
  550000      2200000    9932.9852   -38305.418    277.66942  0.058434058   -28372.433    431.70997    -2.536784   0.15096345   0.02288412    -2.541375    178.03821    177.96564 -0.042370405 
  552000      2208000    9852.1971   -38241.677    275.41105  0.013989364    -28389.48    450.47134   -2.1801329   0.13376103  0.018403221     -2.18431    177.95821    177.89584  -0.18612501 
  554000      2216000    9735.6656   -38350.956    272.15349  0.080162827    -28615.29    672.13519    8.9078019  -0.54074898 -0.078552936    8.9245456    177.87821    178.13324  0.060800696 
  556000      2224000    9781.2747   -38194.789    273.42846 -0.037842421   -28413.514    476.33548   -5.4448859   0.32715065  0.045524377   -5.4548952    177.79821     177.6424  -0.16267132 
  558000      2232000    9923.7948   -38218.681    277.41251 -0.061962988   -28294.886     358.6114    4.2627493  -0.25935803 -0.037985949     4.270801    177.71821    177.84027 -0.098837676 
  560000      2240000    9805.3929   -38135.157    274.10267  -0.09163315   -28329.764    390.40172    2.5189294  -0.15216262 -0.023029263    2.5236262    177.63821    177.71035   0.10339335 
  562000      2248000    9810.2626   -38299.852     274.2388  -0.12149092    -28489.59    549.70424    -5.765962   0.35739251  0.053169269   -5.7772722    177.55821    177.39318 -0.033593837 
  564000      2256000    9850.3958   -38269.494    275.36069  0.099350586   -28419.098    479.44299 -0.084683989 0.0052619969 0.00082636974 -0.084851338    177.47821    177.47583  -0.16862121 
  566000      2264000    9850.6845   -38217.485    275.36876 -0.063867369     -28366.8    430.37946  -0.49333976  0.031108999 0.0039530806  -0.49433543    177.39821    177.38413   0.11772722 
  568000      2272000    9897.9053   -38361.682    276.68878  0.094831965   -28463.776    520.17803  -0.39355658  0.024996644 0.0032559763  -0.39436305    177.31821    177.30698  0.016243318 
  570000      2280000    9767.9121   -38201.529    273.05492 -0.0082972117   -28433.617    494.18421   -2.5038239   0.15598081  0.021316499   -2.5087683    177.23821    177.16657  -0.13836551 
  572000      2288000    9817.8262   -38185.942    274.45023  0.019919041   -28368.116    427.52126   -2.4412633   0.15536512  0.023385443   -2.4463139    177.15821    177.08835  -0.21538742 
  574000      2296000    9819.7383   -38418.632    274.50368  0.036286827   -28598.894     658.4987  -0.45928104  0.029112689 0.0037177548  -0.46021783    177.07821     177.0651  0.027866976 
  576000      2304000    9717.1171   -38073.332    271.63498   0.02021404   -28356.215    417.67052   -3.6244994   0.22610166  0.033488385   -3.6316992    176.99821    176.89449  0.097707651 
  578000      2312000    9895.9336   -38177.729    276.63367  -0.15824738   -28281.795    343.99895   -3.3877804   0.22069566  0.026251261   -3.3950628    176.91821    176.82125  0.066154068 
  580000      2320000    9726.2792   -38156.038     271.8911 -0.070664237   -28429.759    492.51302   -2.1401698   0.14051643  0.019198661   -2.1448637    176.83821    176.77697  -0.28020701 
  582000      2328000    9837.0046   -38193.449    274.98635 -0.016227664   -28356.444    415.57148    11.371414  -0.74342513  -0.10690009    11.396191    176.75821    177.08385 -0.043282353 
  584000      2336000    9823.4591   -38359.946     274.6077  0.095719896   -28536.487     592.1927    -7.258895   0.47159637  0.067048212   -7.2745073    176.67821    176.47041   0.20415794 
  586000      2344000    9746.3084   -38343.123      272.451 -0.049445778   -28596.814    656.59039   -2.3678922   0.15639169  0.020856436   -2.3731428    176.59821    176.53045   -0.3938107 
  588000      2352000    9742.4591   -38111.753     272.3434 0.0025479861   -28369.294    431.80679    2.8014527  -0.18088918 -0.024263382    2.8073915    176.51821    176.59846 -0.038552746 
  590000      2360000    9718.6254   -38244.734    271.67715  0.021537276   -28526.109    586.86314   0.77348834 -0.050992981 -0.0066835811   0.77519621    176.43821     176.4604   0.21100765 
  592000      2368000    9826.1813   -38364.929    274.68379 -0.068455334   -28538.748    599.93636   -3.8429727   0.25629518  0.039756184   -3.8517148    176.35821     176.2482  -0.10149245 
  594000      2376000     9763.837   -38292.335      272.941 -0.0061328814   -28528.498    589.57825   0.62496669 -0.041386719 -0.0060306407   0.62636458    176.27821    176.29615  -0.12987181 
  596000      2384000    9782.4061   -38470.213    273.46009  0.001348127   -28687.807    746.38148   0.36319473 -0.024298142 -0.0034937008   0.36402338    176.19821    176.20865 -0.088813827 
  598000      2392000    9712.0895   -38332.008    271.49444 -0.045839597   -28619.919    678.98842   -3.5140645   0.23511329  0.037160738   -3.5221171    176.11821    176.01762   0.17747831 
  600000      2400000    9906.6461   -38186.013    276.93313  0.016978675   -28279.367    340.73461   -1.0671966  0.071990453   0.01084787    -1.069677    176.03821    176.00769  -0.29462354 
  602000      2408000    9900.9179   -38319.319      276.773  0.030224443   -28418.401    477.56886    2.7522708  -0.18810803  -0.02677201    2.7588215    175.95821    176.03707  -0.15246966 
  604000      2416000    9803.8747   -38248.219    274.06023 -0.062365567   -28444.344    506.22659    -1.696398   0.11566757  0.014797606   -1.7004012    175.87821    175.82967   0.15111963 
  606000      2424000    9900.1522   -38264.397    276.75159 -0.070154925   -28364.245    424.07205   -7.1377455    0.4844958   0.07044492   -7.1545167    175.79821    175.59383  0.054408728 
  608000      2432000    9901.1642   -38476.455    276.77988  0.013352815   -28575.291    631.15336   -3.4660245   0.23423309  0.032927021   -3.4740863    175.71821    175.61899  -0.51104536 
  610000      2440000    9905.8785   -38383.652    276.91167 -0.073375743   -28477.773    536.79127    9.4715131  -0.64769987 -0.097163674    9.4941306    175.63821    175.90951   0.17220483 
  612000      2448000    9872.9937   -38182.176     275.9924  -0.05059566   -28309.182     368.3709   -9.1396463   0.63290326  0.080613744   -9.1618885    175.55821    175.29648   0.28543649 
  614000      2456000    9959.7773   -38328.753    278.41837  0.017134623   -28368.976    427.25611    2.8348789  -0.19413173 -0.031786319    2.8416959    175.47821    175.55944  -0.34217817 
  616000      2464000    10031.907   -38167.074    280.43471 0.0085437118   -28135.167    197.22247    3.8349267  -0.25778513 -0.042845504      3.84382    175.39821    175.50807  0.047418314 
  618000      2472000    9838.3246   -38399.011    275.02325 -0.066081616   -28560.686     620.6434   -4.7093345   0.32648609  0.048612139   -4.7208884    175.31821    175.18337  0.027223922 
  620000      2480000    9863.7179   -38187.914     275.7331  0.018779966   -28324.196    383.83251    -1.397398    0.0966494  0.016512176   -1.4008336    175.23821    175.19823  -0.36245979 
  622000      2488000    9866.4821   -38390.974    275.81037  0.055852909   -28524.492    582.20626    7.6485398  -0.53374335 -0.083739187    7.6675978    175.15821    175.37732 -0.0049470926 
  624000      2496000    9776.8963   -38287.778    273.30607 -5.8550731e-05   -28510.881    569.29077   -2.9200995   0.20503643  0.029080736   -2.9274335    175.07821    174.99461   0.11476829 
  626000      2504000    9685.1597   -38294.388    270.74164 -0.0023680081   -28609.229    669.37791  -0.27328654  0.019332724 0.0027562863  -0.27398337    174.99821    174.99042  -0.22779464 
  628000      2512000    9892.1465   -38264.716     276.5278  0.027098244   -28372.569    433.84183    3.3543141  -0.23945251  -0.04109302    3.3631011    174.91821    175.01434 -0.057120405 
  630000      2520000    9854.1052   -38347.103    275.46438  0.042320717   -28492.998    552.51854   0.47181597 -0.033367996 -0.0047743879   0.47301853    174.83821    174.85176   0.10920858 
  632000      2528000     9740.081   -38268.617    272.27692  0.039246778   -28528.536    588.60129    2.1734843  -0.15673279  -0.02561599    2.1792787    174.75821    174.82051 -0.037783507 
  634000      2536000    9760.9968    -38272.37    272.86161  0.023851922   -28511.373    571.21843   -2.9812188    0.2100895  0.034684725   -2.9888135    174.67821    174.59285  -0.15311408 
  636000      2544000    9754.4103   -38205.717    272.67749  0.015337613   -28451.307    512.13656   -4.4183528   0.31730411  0.049149388   -4.4300044    174.59821    174.47168  -0.17769438 
  638000      2552000    9969.2883   -38291.397    278.68424 -0.054824709   -28322.109    382.38968    6.4161895  -0.45552836 -0.068741042     6.432707    174.51821    174.70204  0.071473974 
  640000      2560000     9765.026   -38292.467    272.97424 -0.037162269   -28527.441     588.6046   -5.6293373    0.4099826  0.066095219    -5.644634    174.43821    174.27697   0.23218711 
  642000      2568000    9890.0869   -38263.109    276.47023 0.0029509188   -28373.022    430.75907   -4.2043677   0.30563292  0.049760837   -4.2157556    174.35821     174.2378  -0.23045005 
  644000      2576000    9769.0667   -38153.814    273.08719 -0.037254013   -28384.747    446.27685    3.7795975  -0.27482483 -0.046212837    3.7898577    174.27821    174.38653  -0.20051101 
  646000      2584000    9855.4417   -38198.371    275.50175  0.078321434   -28342.929    403.38267    0.1194589 -0.0086528691 -0.0015392874   0.11978176    174.19821    174.20167   0.14987072 
  648000      2592000    10014.492   -38257.412    279.94788   0.16025341    -28242.92    303.11408    -1.887033   0.13763787   0.02424124   -1.8922011    174.11821    174.06419 -0.085301819 
  650000      2600000    9865.6499   -38163.062    275.78711  0.023950653   -28297.413    357.91612   0.28203559 -0.020930455 -0.0037846053   0.28283649    174.03821    174.04633  -0.05038014 
  652000      2608000    9776.2099   -38412.657    273.28688 -0.047974187   -28636.447     694.5596  -0.61533605  0.045668137 0.0079431619  -0.61707951    173.95821    173.94062 0.0048254388 
  654000      2616000    9762.2541    -38249.12    272.89675 -0.021463187   -28486.866    548.92497   -4.3236516   0.32477711  0.054922197   -4.3361803    173.87821    173.75436 -0.047794599 
  656000      2624000    9950.6547   -38316.249    278.16336   0.12497338   -28365.594    422.36747    10.071005    -0.761082  -0.13390873     10.10061    173.79821    174.08684   0.05993057 
  658000      2632000    9925.3552   -38262.545    277.45613 -0.018219359    -28337.19    396.80537   -7.1483494   0.53636808  0.090970618   -7.1690212    173.71821    173.51342 -0.013859195 
  660000      2640000    9823.9076   -38339.524    274.62023  0.021740474   -28515.617     577.4471   0.78202109 -0.059148279 -0.0092559115   0.78430937    173.63821    173.66066   -0.1353654 
  662000      2648000    9869.4264   -38121.444    275.89268  0.054383828   -28252.018    312.10877  -0.88970657  0.066779261   0.01056696  -0.89227177    173.55821    173.53276 -0.061682716 
  664000      2656000    9844.7113   -38174.446    275.20179 -0.037852268   -28329.735     390.5359    5.6290322   -0.4197044 -0.066998756    5.6450549    173.47821    173.63954  0.020692122 
  666000      2664000    9911.2256    -38104.88    277.06115 -0.010692059   -28193.655     254.8106  -0.77628614  0.058580881 0.0091076004  -0.77854662    173.39821    173.37601  0.080860399 
  668000      2672000    9765.0222   -38162.695    272.97413 -0.063026342   -28397.673    458.68033   -4.0598326   0.30959071  0.046708631   -4.0718877    173.31821    173.20191  -0.19506354 
  670000      2680000    9614.7276   -38168.695    268.77276 -0.055238968   -28553.967    613.87765    1.5079319  -0.11467744 -0.020217357    1.5124214    173.23821    173.28146 -0.019193811 
  672000      2688000    9826.0577     -38120.9    274.68034 -0.057053315   -28294.842     354.7124    5.7267936   -0.4352661 -0.061201571    5.7436371    173.15821    173.32235   0.22657567 
  674000      2696000     9864.677   -38293.361    275.75991 -0.0041901258   -28428.684    485.32206   -4.9639557   0.37837721  0.063679994    -4.978763    173.07821      172.936  -0.13655965 
  676000      2704000    9932.2503   -38185.795    277.64888 -0.039868299   -28253.545    311.36778   0.47167848 -0.035338886 -0.0048624394   0.47302544    172.99821    173.01176 -0.024437195 
  678000      2712000     9761.313   -38214.245    272.87045  -0.12680244   -28452.932    512.99167   -6.9803705   0.52471728  0.075864318   -7.0004754    172.91821    172.71824 0.0060535533 
  680000      2720000    9905.6883   -38196.649    276.90635  0.034302632   -28290.961    349.50964   -1.0798967  0.080471218  0.011280435   -1.0829495    172.83821    172.80731  -0.10592295 
  682000      2728000    9937.8143   -38230.583    277.80441 -0.034842958   -28292.769    352.35773  -0.85593136  0.065064419 0.0092942258  -0.85845107    172.75821    172.73372 -7.778105e-05 
  684000      2736000     9825.504   -38078.982    274.66486   0.11219209   -28253.478    312.76546    2.0049448  -0.15302204 -0.020900598    2.0108844    172.67821     172.7357 -0.015182875 
  686000      2744000    10024.122   -38207.231    280.21709 -0.086400995   -28183.109    243.11388  0.036736676 -0.0028030379 -0.00039371388  0.036845562    172.59821     172.5993  -0.17109511 
  688000      2752000    9903.3355   -38332.927    276.84058 -0.058942147   -28429.591    489.96505    3.4161613  -0.26343027   -0.0358935    3.4264912    172.51821    172.61615   0.12441994 
  690000      2760000    9722.1585    -38280.72    271.77591  0.060412356   -28558.561    617.24504    1.2020667 -0.093331995 -0.011424048    1.2057387    172.43821     172.4727   0.10199329 
  692000      2768000    9820.1932   -38301.388     274.5164  0.034996241   -28481.195    538.93419   -10.183373   0.78362212   0.10423913   -10.214011    172.35821    172.06642  -0.19869527 
  694000      2776000     9802.017   -38337.185     274.0083 -0.0038474775   -28535.168    591.79596    7.9590076  -0.62871048 -0.094392243     7.984359    172.27821    172.50637   -0.1891589 
  696000      2784000    9937.9644   -38247.125    277.80861  0.011167764    -28309.16    369.45968   0.51120264  -0.04039722 -0.0055866878   0.51282676    172.19821     172.2129   0.16888746 
  698000      2792000    9681.1324    -38271.26    270.62906  -0.13759318   -28590.128    650.60321  -0.13441723  0.010747289 0.0015947251  -0.13485562    172.11821     172.1144   -0.1165843 
  700000      2800000    9835.2148   -38128.157    274.93632 -0.068939781   -28292.942    352.92115     4.220887  -0.33344289 -0.045028618    4.2342766    172.03821    172.15923  -0.23024051 
  702000      2808000    9842.4604   -38264.109    275.13886 -0.073265029   -28421.648    482.43515    2.6387589   -0.2085348 -0.030319781    2.6471597    171.95821    172.03388  0.033758966 
  704000      2816000    9715.4645   -38239.645    271.58878   0.10624819   -28524.181    585.44237  -0.83557215  0.066446873  0.010818104  -0.83827981    171.87821     171.8543 -0.045822007 
  706000      2824000    9972.4655   -38392.223    278.77306 -0.013175189   -28419.758    477.97431    1.0578021 -0.083780021 -0.013880814    1.0612054    171.79821    171.82857  -0.25845197 
  708000      2832000    9831.0852   -38223.948    274.82088  0.054567484   -28392.863    453.53062   -3.6960421   0.29087334  0.051085367    -3.707822    171.71821    171.61231  0.034523503 
  710000      2840000    9957.2237   -38373.522    278.34699 -0.042666669   -28416.298    476.35445   0.76493739  -0.05987763 -0.010676349   0.76735163    171.63821    171.66017   0.16290657 
  712000      2848000    9874.7779   -38346.475    276.04228 0.0022353684   -28471.697    530.08081   -6.3282244    0.5055972  0.084501587   -6.3489521    171.55821    171.37685 0.0046804398 
  714000      2856000     9838.813   -38514.929     275.0369  0.022943491   -28676.116    732.59244   -2.5184173   0.20443421  0.033231309   -2.5269198    171.47821    171.40605  -0.20374557 
  716000      2864000    9969.3135   -38198.609    278.68495 -0.0091400016   -28229.296    288.28336   0.27225482 -0.021842657 -0.0029877724   0.27314596    171.39821    171.40605   -0.0751293 
  718000      2872000    9901.4428   -38409.396    276.78767  0.026623244   -28507.953      565.162    5.1409856  -0.41736019 -0.057080446    5.1582149    171.31821    171.46563  0.067923384 
  720000      2880000    9722.8291   -38355.496    271.79466  0.070089644   -28632.667    690.30034   -2.9669969   0.24118581  0.033491784   -2.9769721    171.23821    171.15319  0.025426918 
  722000      2888000    9872.1562   -38344.431    275.96899  0.054348023   -28472.275    530.80734   -1.2299882    0.1012444  0.013817857   -1.2342254    171.15821    171.12299   -0.2446916 
  724000      2896000    9860.1561   -38341.922    275.63353 -0.0076030308   -28481.766    540.46789    8.4048067   -0.6763094    -0.102676    8.4325982    171.07821    171.31918 -0.078742007 
  726000      2904000    9807.8094   -38166.979    274.17022  0.026784996    -28359.17     417.9674    2.5433992  -0.20747407 -0.030064859    2.5520245    170.99821    171.07116  0.097655453 
  728000      2912000     9784.545   -38364.526    273.51988  0.053265368   -28579.981    637.11427  -0.26409735  0.021494452 0.0026642643  -0.26498399    170.91821    170.91068 -0.015303921 
  730000      2920000    9737.7998   -38176.771    272.21315  0.091698921   -28438.971    500.64122   -4.1571911   0.33842211  0.050788037   -4.1712524    170.83821    170.71907  -0.13356786 
  732000      2928000    9805.1117   -38091.823    274.09481 -0.037224734   -28286.711    347.79778     7.791129  -0.65327673 -0.092496916    7.8190164    170.75821    170.98165 -0.014157162 
  734000      2936000    9840.0737   -38193.668    275.07214 -0.018262529   -28353.594    411.75157   -1.5979556   0.13051459  0.021222078   -1.6034172    170.67821    170.63244   0.14609591 
  736000      2944000    9757.9571   -38397.467    272.77663   0.10948648    -28639.51    697.98593   -4.8278373   0.40644897  0.056944539   -4.8452509    170.59821    170.45981  -0.18597193 
  738000      2952000    9778.6055   -38248.492    273.35385  -0.02346971   -28469.887    530.13337   -2.3895172   0.19724872  0.029203112   -2.3978224    170.51821    170.44974  -0.19103291 
  740000      2960000    9744.2961   -38060.401    272.39475 -0.066566726   -28316.105    379.57828   -1.7644804   0.14965275  0.020968133   -1.7709395    170.43821    170.38765 -0.061591454 
  742000      2968000    9851.7185   -38111.522    275.39767   0.01811407   -28259.803    319.58721    6.8186551  -0.58343825 -0.080811396    6.8440476    170.35821    170.55379 -0.014635988 
  744000      2976000    9887.9214   -38367.813    276.40969  0.040363376   -28479.891    536.63117   -5.1901871   0.42894396  0.063826127   -5.2082731    170.27821    170.12944   0.17761353 
  746000      2984000    9877.5511    -38318.91     276.1198   0.06213017   -28441.359    502.04805    1.3195298  -0.11160892  -0.01778111    1.3243608    170.19821    170.23609  -0.24855221 
  748000      2992000    9839.9882   -38322.967    275.06975  -0.10192567   -28482.979    541.97166    2.8667054  -0.24201178 -0.039872975     2.877179    170.11821    170.20045  0.036825016 
  750000      3000000    9765.9882   -38186.783    273.00114   0.10775715   -28420.795     479.3917   -5.8784017   0.49804007  0.079145364   -5.8999927    170.03821    169.86968  -0.13477391 
  752000      3008000    9894.6482   -38139.469    276.59774 -0.067468834   -28244.821    307.90646     2.437187  -0.20592993 -0.037923937    2.4461655    169.95821    170.02814  -0.07140936 
  754000      3016000    9831.5767   -38440.069    274.83462  0.056136358   -28608.492    669.33712   -1.6695218   0.14275285  0.023250369   -1.6757751    169.87821    169.83037  0.038242223 
  756000      3024000    9964.6822   -38115.294    278.55549 -0.040469495   -28150.612    211.98239  -0.30308305  0.026366908 0.0042790646  -0.30425788    169.79821    169.78956  -0.06273539 
  758000      3032000    9761.0604   -38371.074    272.86338 -0.013911457   -28610.013    670.67751    2.7869048  -0.24274199 -0.041520521    2.7977645    169.71821    169.79819  0.083959732 
  760000      3040000    9849.5716   -38309.234    275.33765   0.04388915   -28459.662    519.49673   -1.3971211   0.12009808  0.022149274   -1.4024484    169.63821    169.59818  -0.06536904 
  762000      3048000    9800.5408   -38201.556    273.96703 -0.056778012   -28401.015    460.72418    3.6356599  -0.31619715 -0.062228866    3.6499145    169.55821    169.66253  -0.20781989 
  764000      3056000    9770.0328   -38395.361     273.1142   0.11412979   -28625.328    684.07459   -3.7692754   0.32756657  0.053687273    -3.783863    169.47821    169.37014   0.29512284 
  766000      3064000    9799.4443   -38281.908    273.93638 -0.064730099   -28482.464    546.43417   -2.2409588   0.20176081  0.031743205    -2.250247    169.39821    169.33396  -0.21238068 
  768000      3072000    9849.1146   -38197.788    275.32488  0.014015013   -28348.673    408.82151    8.4387533  -0.76939267   -0.1278962      8.47472    169.31821    169.56038  -0.03026563 
  770000      3080000    9811.6553   -38271.222    274.27773  0.086280467   -28459.567    516.27215   -2.1596862   0.19430644  0.032399819   -2.1686515    169.23821    169.17629  -0.09890001 
  772000      3088000    9799.3704   -38318.238    273.93431  0.019050848   -28518.868    579.53508    1.3223953  -0.12092927 -0.020933394    1.3280781    169.15821    169.19619  0.028950418 
  774000      3096000    9988.4278   -38259.491    279.21928 -0.082151419   -28271.063    331.64428   -1.4217664   0.12881216  0.020146387   -1.4277318    169.07821    169.03746 0.0095089766 
  776000      3104000    9933.8313   -38277.193    277.69307  0.037469879   -28343.361    400.51937   -6.2829659   0.56942571  0.089290272   -6.3093485    168.99821    168.81798  -0.10923712 
  778000      3112000    10009.469   -38192.048    279.80748  -0.07003436   -28182.578    245.13031    4.6642819  -0.42470888 -0.065908751    4.6840417    168.91821    169.05208 0.0042932393 
  780000      3120000    9764.7694   -38407.241    272.96707   0.08678415   -28642.471    700.43413      3.73496   -0.3395027  -0.05299956    3.7507329    168.83821    168.94541  0.094881408 
  782000      3128000    10005.962   -38180.727    279.70943   0.05428294   -28174.766    232.33431   -10.948487    0.9853438   0.14349485   -10.993674    168.75821    168.44414  -0.14546149 
  784000      3136000    9744.0901   -38329.059    272.38899  0.014768704   -28584.969    641.72044   -4.4075578   0.40292997  0.057837357   -4.4263148    168.67821    168.55178  -0.17898711 
  786000      3144000    9863.3003   -38236.414    275.72143  -0.03219429   -28373.113    436.27526   -2.8265105   0.25723316  0.036704248   -2.8384288    168.59821    168.51715   0.20495386 
  788000      3152000    9837.8881   -38187.604    275.01105 -0.057493043   -28349.716    411.05999   -3.4637757   0.31629523  0.045837498   -3.4784891    168.51821    168.41886  0.096694907 
  790000      3160000    9875.6173   -38290.873    276.06574  0.004493374   -28415.255    472.78417    4.5231194  -0.41882047  -0.06147554    4.5428845    168.43821    168.56805  -0.39339775 
  792000      3168000    9747.6295    -38156.86    272.48793 0.0062339378   -28409.231    471.95202  -0.15902731  0.014763127 0.0021265286  -0.15972526    168.35821    168.35369  0.058959838 
  794000      3176000    9897.6143    -38141.78    276.68065 -0.077960046   -28244.166    306.67656   -6.7586522   0.62718439  0.077003499    -6.788127    168.27821     168.0843   0.11808237 
  796000      3184000    9833.9465   -38211.647    274.90086  0.023480428     -28377.7    439.63367    2.2346272  -0.20852156 -0.026886051    2.2444961    168.19821    168.26238  -0.17929786 
  798000      3192000    9818.6311    -38103.91    274.47273 -0.015454169   -28285.278    347.43868    2.2751988  -0.21267431 -0.027889911    2.2852872    168.11821    168.18354 -0.015972091 
  800000      3200000    9809.9158   -38387.814     274.2291  0.050477913   -28577.898    633.43314   -2.9071251   0.27367368  0.036009559   -2.9202004    168.03821    167.95482  -0.19840114 
  802000      3208000    9775.5431   -38199.257    273.26824 -0.056741459   -28423.714    485.15432   -1.8403734   0.17359256  0.022450917   -1.8486786    167.95821    167.90543  0.052386361 
  804000      3216000    9816.6637   -38336.008    274.41774 0.0077548119   -28519.344    576.60198   -4.6519965   0.43861474  0.063109166   -4.6730544    167.87821    167.74473  0.073471731 
  806000      3224000    9769.4839    -38360.79    273.09886 -0.028674192   -28591.306    650.43555   0.82868706 -0.077996006 -0.0097591337   0.83240667    167.79821    167.82203   -0.1535389 
  808000      3232000    9771.9895   -38184.602     273.1689  0.030806671   -28412.613    472.88707    7.4532059  -0.70860026 -0.095292897     7.487421    167.71821    167.93218 -0.046016002 
  810000      3240000    9727.9742   -38169.446    271.93848   0.10347843   -28441.472     502.4017    2.4292153    -0.230814 -0.033818875    2.4403905    167.63821    167.70797   0.17810105 
[...]
 4280000      7403040    9769.5927   -34786.875     273.1019   0.71448544   -25017.282    5856.4783    646.30806   -216.44267   -11.652909    681.68712    28.306334    47.783149    15551.247 
 4282000      7411040    9958.4773   -34782.737    278.38203   0.70338144    -24824.26    5624.2664    650.32486   -219.45322   -13.836641     686.4937    28.226334     47.84048    15605.829 
 4284000      7419040    9728.7711   -34886.949    271.96076   0.67932291   -25158.178    6009.3894    650.12977    -220.5112   -11.101933    686.59825    28.146334    47.763467    15660.443 
 4286000      7427040    9894.3589   -34853.586    276.58965   0.60038882   -24959.228    5895.6301     649.1938   -218.74449   -12.505981    685.17016    28.066334    47.642665    15715.216 
 4288000      7435040    9819.7075   -34660.995    274.50282   0.76573953   -24841.288    5892.3242    646.54136   -216.92022   -10.931045    682.04809    27.986334    47.473463    15769.866 
 4290000      7443040    9933.2758   -34776.814    277.67754   0.81124726   -24843.538    5862.4676    650.60028   -218.37554   -10.860629    686.35745    27.906334    47.516587    15824.561 
 4292000      7451040    9794.3787   -34586.133    273.79478   0.75550874   -24791.754    5831.4225    652.20591   -219.39689   -11.606806    688.21673    27.826334    47.489709    15879.465 
 4294000      7459040    9972.1606   -34621.602    278.76454   0.71009592   -24649.441    5773.5977    650.08827   -220.44105   -13.823683    686.58584    27.746334    47.363112    15934.634 
 4296000      7467040    9900.7049   -34705.872    276.76705    0.7566086   -24805.167    5934.0424    652.98738   -219.88325   -13.663816     689.1501    27.666334    47.356377     15989.89 
 4298000      7475040    9954.0998   -34631.293    278.25966   0.75564702   -24677.193    5796.8744    655.98839   -221.67297   -11.161883    692.52023    27.586334    47.372666    16045.277 
 4300000      7483040    9731.2615   -34497.686    272.03038   0.71547672   -24766.425    5909.5386    657.60807   -221.79828   -14.848375    694.16376    27.506334    47.339625    16100.863 
 4302000      7491040    9831.7678   -34657.624    274.83996   0.69994094   -24825.856    6022.6311    657.18769   -223.52592   -12.680451    694.27681    27.426334    47.262854     16156.35 
 4304000      7499040    9841.1872   -34595.805    275.10327   0.71685291   -24754.618    6008.7685    656.95613   -223.55288    -12.23276    694.05828    27.346334    47.176611    16212.018 
 4306000      7507040    9914.8091   -34588.882    277.16132   0.68463895   -24674.073    5901.8207    660.65493   -225.52244   -15.068534     698.2495    27.266334     47.21636    16267.829 
 4308000      7515040    9917.8067   -34716.683    277.24512   0.65546895   -24798.876    6041.2228    662.97662   -225.13364   -14.088567    700.30111    27.186334    47.194977     16323.82 
 4310000      7523040    9947.8615   -34446.188    278.08528   0.83765852   -24498.327    5690.2462    668.03608    -226.7292   -15.925315    705.64294    27.106334    47.267601    16379.909 
 4312000      7531040    9824.8179    -34423.95    274.64568   0.72215322   -24599.132    5931.7592    663.08341   -228.44941   -13.399779    701.46154    27.026334    47.068133    16436.048 
 4314000      7539040    9750.6135   -34498.072    272.57135   0.78393117   -24747.458    6045.3625    669.14889    -224.7097   -12.304612    705.97881    26.946334    47.117197    16492.339 
 4316000      7547040    9789.9105   -34560.401    273.66987   0.71106273    -24770.49    6060.9414    671.83838   -226.25178    -12.59939    709.02427    26.866334    47.124211    16548.797 
 4318000      7555040    9790.3587   -34360.731     273.6824   0.62700807   -24570.372    5905.5362    672.29143   -227.10972    -16.82383    709.81521    26.786334    47.066809    16605.597 
 4320000      7563040    9825.8068   -34510.318    274.67332   0.77697492   -24684.512    5991.5405      676.434   -227.30646   -17.853503    713.82766    26.706334     47.10145    16662.545 
 4322000      7571040    9795.9503   -34562.213    273.83871    0.8949998   -24766.263    6196.8394    673.75053   -224.54622   -14.063226    710.32285    26.626334    46.921313    16719.686 
 4324000      7579040    9820.4839   -34518.525    274.52453   0.80794064   -24698.041    6057.1198    679.82823   -227.00024   -14.893147    716.88028    26.546334    47.028668    16776.831 
 4326000      7587040    9776.9712    -34588.57    273.30816   0.78397571   -24811.599    6187.7125    681.16824   -228.94072   -15.537627    718.78052    26.466334    47.002961    16834.275 
 4328000      7595040     9650.935   -34495.467    269.78491   0.78775181   -24844.532    6231.8274    682.66361   -231.50588   -14.268538     720.9911    26.386334     46.98612    16891.862 
 4330000      7603040    9691.6746   -34392.318    270.92375   0.69734829   -24700.643     6199.345    679.92677   -231.62868   -16.471439      718.487    26.306334    46.834574    16949.489 
 4332000      7611040    9905.9444   -34474.865    276.91351   0.73697292   -24568.921    6011.1696    685.48773   -232.04958    -21.04501    724.00506    26.226334    46.912233     17007.12 
 4334000      7619040    9946.6453   -34329.031    278.05128   0.92457574   -24382.386    5925.8072     683.1616   -232.30098   -15.267239     721.7386    26.146334    46.767477    17064.929 
 4336000      7627040    9758.7325    -34386.26    272.79831   0.65044735   -24627.527    6144.6545     687.0848   -233.81753   -13.263184    725.90087    26.066334    46.806399    17122.828 
 4338000      7635040    9811.9391   -34395.589    274.28566   0.75717327   -24583.649    6075.7439    690.85847   -235.22067   -14.565505    729.94954    25.986334    46.842076    17180.914 
 4340000      7643040    9836.8922   -34289.203    274.98321   0.65754169   -24452.311    6037.4675    689.79636   -233.45857   -12.501648    728.33935    25.906334     46.71607    17239.162 
 4342000      7651040    9644.5692   -34378.563    269.60696   0.73978621   -24733.994    6346.0687    690.87259   -234.26749   -13.736072    729.64023    25.826334    46.673238    17297.522 
 4344000      7659040    9704.4752   -34203.612    271.28159   0.82267246   -24499.137    6175.2369    690.28742   -235.59836   -13.321424    729.50721    25.746334    46.589437    17356.082 
 4346000      7667040    9738.3424    -34092.51    272.22832   0.76243953   -24354.168      5985.81    694.96295   -237.32137   -14.045466    734.50134    25.666334    46.652127    17414.722 
 4348000      7675040    9892.7118   -34288.582     276.5436   0.76612448   -24395.871    6020.3316    698.32935   -236.73639   -15.114611    737.52047    25.586334    46.658388    17473.422 
 4350000      7683040    9828.7423   -34273.577    274.75538   0.70212308   -24444.835    6140.8495    697.92664   -236.37455   -12.939927    736.98166    25.506334    46.562993    17532.216 
 4352000      7691040    9794.6437   -34307.426    273.80218   0.74033082   -24512.782    6208.6489    699.88146   -238.96915   -19.513163    739.81151    25.426334    46.563846    17591.208 
 4354000      7699040    9908.5741   -34041.435    276.98702   0.76580032   -24132.861    5913.8645    699.12191   -237.77489   -16.159869    738.62676    25.346334    46.449996    17650.304 
 4356000      7707040    9934.7514   -34268.022    277.71879   0.86473724   -24333.271    6068.4124    703.63656   -239.69315   -13.307387    743.46103    25.266334    46.508118    17709.567 
 4358000      7715040    9888.9138    -34080.41    276.43743   0.91209614   -24191.497    6079.3773    700.57739   -234.85925   -14.738017    739.04314    25.186334    46.301893    17768.952 
 4360000      7723040    9866.3741   -34060.159    275.80735    0.8304649   -24193.785    6052.3867    704.15246   -237.61974   -14.249244    743.30133    25.106334    46.343555    17828.466 
 4362000      7731040     9779.423   -33959.257     273.3767   0.87464961   -24179.834    6005.3768    708.58323   -237.99289   -15.957551    747.65329    25.026334    46.387897    17888.145 
 4364000      7739040     9904.508   -33842.566    276.87336   0.80494936   -23938.058    5906.9385    704.66784    -236.9917   -17.576728    743.66039    24.946334    46.193814    17947.993 
 4366000      7747040    9836.6341   -33836.146    274.97599   0.80229522   -23999.512    5966.8032    707.60477   -237.79229   -14.958398    746.64144    24.866334    46.198987    18007.834 
 4368000      7755040    9807.7994   -34080.949    274.16994   0.73603324    -24273.15    6257.2559     709.5149    -238.2644   -15.677762     748.6168    24.786334    46.175426    18067.809 
 4370000      7763040    9848.1104   -33919.036    275.29681   0.77382117   -24070.926     5972.747      716.053   -239.79838   -18.307308    755.36105    24.706334    46.288119    18127.918 
 4372000      7771040    9752.7269   -34142.326    272.63043   0.78147382   -24389.599    6348.2393    715.88823   -240.37699   -15.366121    755.32322    24.626334    46.207038    18188.194 
 4374000      7779040    9813.1614   -33976.354    274.31983   0.76623312   -24163.193    6098.9683    718.92375   -243.81372   -13.495839     759.2619    24.546334    46.239571    18248.642 
 4376000      7787040    9982.8772   -33906.754    279.06411   0.84504343   -23923.877    5908.7652    718.43321   -246.62255   -14.353102    759.72032    24.466334    46.172669    18309.275 
 4378000      7795040    9781.0509   -33826.468    273.42221   0.64691092   -24045.418    6075.4111    719.58085   -246.00562    -14.31371    760.60519    24.386334    46.117951    18370.017 
 4380000      7803040    9799.0534   -33911.613    273.92545   0.88528744    -24112.56    6247.0886    718.54145   -241.96346   -16.404314    758.36485    24.306334    45.973941    18430.943 
 4382000      7811040    9796.3391   -33865.721    273.84958   0.79749112   -24069.382    6117.9472    724.83276   -245.09156   -16.916754     765.3356    24.226334    46.093106    18491.917 
 4384000      7819040    9710.3938   -33898.611    271.44704    0.6372811   -24188.217    6237.0811    726.96951   -247.57484   -15.664765    768.12977    24.146334    46.092939    18553.048 
 4386000      7827040    9868.7124   -33903.195    275.87272   0.81211443   -24034.482    6157.2385    727.20079   -244.82298   -15.038142    767.45386    24.066334    45.993627     18614.34 
 4388000      7835040    9855.9663   -33899.975    275.51641   0.84589352   -24044.009    6170.4769    730.15535   -244.22943   -13.897988    770.04416    23.986334    45.987636    18675.837 
 4390000      7843040     9897.709   -33728.649     276.6833   0.82348259    -23830.94    6062.5872    726.51836   -248.63065   -15.225605    768.03512    23.906334    45.850235    18737.429 
 4392000      7851040    9879.2471   -33769.858    276.16721   0.71814899   -23890.611    6021.8329    734.10851   -249.54366   -15.020514    775.50819    23.826334    45.983751    18799.147 
 4394000      7859040    9797.7901   -33796.219    273.89014   0.70800743   -23998.429    6199.3894    734.26106   -247.90508   -14.285098    775.11308    23.746334    45.892462     18861.08 
 4396000      7867040    9913.7261   -33565.871    277.13104    0.9297731   -23652.144    5963.8027    731.85034   -247.82702   -13.216067    772.78575    23.666334    45.745967    18923.139 
 4398000      7875040    9774.6774   -33710.715    273.24404   0.75560524   -23936.038      6226.07    735.06401   -250.24589   -14.580404    776.63035    23.586334    45.775813    18985.412 
 4400000      7883040    9784.3295   -33710.637    273.51386   0.75034379   -23926.307    6147.4557    740.94524   -251.53656   -14.791324    782.61694    23.506334    45.866858    19047.645 
 4402000      7891040     9812.631   -33759.307      274.305   0.88192697   -23946.676    6251.0333    740.17285   -250.20231   -13.935546    781.44177    23.426334    45.753282    19110.314 
 4404000      7899040     9789.018   -33712.324    273.64492   0.70610321   -23923.306    6211.9985    744.16564   -250.07251   -15.200482    785.20686    23.346334    45.780856    19173.026 
 4406000      7907040    9885.5378   -33865.814    276.34306   0.72543549   -23980.276    6207.6954    748.67327   -253.63077   -15.641514    790.62311    23.266334    45.855606    19235.915 
 4408000      7915040    9784.0539   -33904.247    273.50615    0.8743289   -24120.193    6365.9669     749.9088     -255.722   -13.483676    792.42587    23.186334    45.827113    19298.876 
 4410000      7923040     9794.745    -33655.72    273.80501   0.82755135   -23860.975     6144.905    751.74546   -254.29032   -16.732674     793.7662    23.106334    45.785409    19361.949 
 4412000      7931040    9746.5785   -33563.686    272.45855   0.77640088   -23817.107    6182.9499    750.68795   -254.79213   -14.937006       792.89    23.026334    45.680374    19425.183 
 4414000      7939040    9705.9569   -33458.781    271.32301   0.82779312   -23752.824    6281.2282     746.1318   -254.40646   -14.393598    788.44308    22.946334    45.473319    19488.527 
 4416000      7947040    9859.2223   -33421.074    275.60743   0.92339841   -23561.851    6274.5386    740.81573   -252.85786   -15.071807    782.92542    22.866334    45.235672    19551.843 
 4418000      7955040    9738.8186   -33521.433    272.24163    0.7997985   -23782.615    6433.7446    745.70567   -255.88225   -12.520754    788.48554    22.786334    45.314533    19615.031 
 4420000      7963040    9846.3965   -33449.825    275.24889   0.71777375   -23603.429     6191.588    752.24709   -254.24855   -13.913447    794.17353    22.706334    45.397046    19678.343 
 4422000      7971040    9836.2169   -33234.796    274.96433   0.75768446    -23398.58      6098.23    750.36487   -253.57008   -10.591993     792.1221    22.626334    45.258434    19741.662 
 4424000      7979040    9856.3182   -33344.525    275.52625   0.82007919   -23488.207    6291.8779    749.03211   -251.32589   -14.591318    790.20675    22.546334     45.12371    19805.016 
 4426000      7987040    9621.7507   -33433.005    268.96908   0.84010403   -23811.255    6552.7957    754.62564   -251.90754   -14.780151    795.69826    22.466334     45.20061    19868.437 
 4428000      7995040    9800.9196   -33325.161    273.97762    0.7257632   -23524.242    6329.2419    753.22702   -256.59047   -16.809708    795.90965    22.386334     45.12665    19931.992 
 4430000      8003040    9705.7529    -33360.06     271.3173   0.86286314   -23654.307    6488.7919    755.01483   -255.58298   -13.093821    797.20856    22.306334    45.083762    19995.647 
 4432000      8011040    9860.1265   -33341.725    275.63271   0.70370138   -23481.599    6417.0205     753.8368   -254.18771   -13.318768    795.64986    22.226334    44.959227    20059.503 
 4434000      8019040    9699.2634   -33266.427     271.1359   0.85537334   -23567.164    6532.0801    755.03613   -255.09855   -14.725945    797.10205    22.146334    44.920719     20123.32 
 4436000      8027040    10003.128   -33153.574    279.63021   0.98328814   -23150.446    6125.8495    757.79446   -254.14206   -14.423387     799.4052    22.066334    44.906523    20187.422 
 4438000      8035040    9843.8239   -33113.889    275.17698   0.79013191   -23270.065    6310.3717    758.89884   -250.92659   -18.256288    799.51541    21.986334    44.829672    20251.399 
 4440000      8043040    9853.7155   -33074.485    275.45349   0.72506178   -23220.769     6350.204    756.75155   -253.99339   -14.669186    798.37381    21.906334    44.717054    20315.364 
 4442000      8051040    9894.9997   -32973.383    276.60756   0.84590799   -23078.383    6136.0843    761.39992   -258.92936   -14.091835    804.34622    21.826334    44.807695    20379.454 
 4444000      8059040    9754.0597   -33141.506    272.66769   0.83403593   -23387.446    6491.2193    762.33603   -258.26173   -15.109345    805.03642    21.746334    44.747415    20443.647 
 4446000      8067040    9816.1231   -33064.448    274.40262    1.0006924   -23248.325    6330.1276     766.5552   -257.45413   -15.985047    808.79233    21.666334    44.774727    20507.966 
 4448000      8075040    9868.7719   -32837.736    275.87438   0.78168892   -22968.964    6175.4146    763.45808   -259.08006      -13.401    806.33139    21.586334    44.624414    20572.555 
 4450000      8083040    9816.7482   -32906.844     274.4201   0.80473105   -23090.096    6318.0186    765.99472   -257.08473   -15.224854    808.12887    21.506334    44.595771     20637.21 
 4452000      8091040    9921.7174   -32968.708    277.35444   0.81528241   -23046.991    6284.8897    767.70421   -259.44599   -12.987963    810.46324    21.426334    44.582467    20702.117 
 4454000      8099040    9835.9087   -33001.248    274.95571   0.78789085   -23165.339    6349.7163    773.21527   -258.90868   -15.903848    815.56637    21.346334     44.64827     20767.16 
 4456000      8107040    9873.8464   -32983.686    276.01624   0.91191141   -23109.839    6361.5173    773.05478   -259.22337    -14.31988    815.48483    21.266334    44.565941    20832.415 
 4458000      8115040    9850.7804   -33072.531    275.37144   0.78514923   -23221.751    6467.4113    776.63151   -257.66354   -18.980778    818.47863    21.186334    44.571478    20897.819 
 4460000      8123040    9815.5192   -32914.544    274.38574    0.8077012   -23099.025    6416.9799    775.42915     -260.621   -17.589952     818.2439    21.106334    44.484771    20963.401 
 4462000      8131040    9794.4188   -32919.992    273.79589   0.88029209   -23125.574    6423.1779    778.51793   -262.77516   -16.210139     821.8295    21.026334    44.507217    21029.035 
 4464000      8139040    9876.6273   -32807.437    276.09398   0.90174298   -22930.809    6308.2667     778.6675   -260.28687   -16.149247    821.17789    20.946334      44.4086    21094.923 
 4466000      8147040    9969.8493   -32846.557    278.69993   0.70872563   -22876.708    6178.2548    784.70915   -262.01119   -17.613947    827.48327    20.866334    44.508753    21160.994 
 4468000      8155040    9765.7639   -32775.289    272.99487    0.8811982   -23009.526    6380.9213    784.88491   -260.69898   -18.313505    827.25067    20.786334    44.422108    21227.257 
 4470000      8163040    9732.0492   -32958.658     272.0524   0.86797337   -23226.609    6513.2014     790.0264   -265.06333    -19.22264    833.52852    20.706334    44.521475    21293.656 
 4472000      8171040    9798.6028   -32926.693    273.91286   0.79649115    -23128.09    6520.7778     787.4072   -267.97851   -18.315422    831.96035    20.626334     44.39667    21360.267 
 4474000      8179040    9954.2446   -32927.445    278.26371   0.79219314   -22973.201    6381.0325    789.62622   -267.92572   -19.028949    834.05986    20.546334    44.376656    21426.838 
 4476000      8187040    9789.2026   -32936.468    273.65008   0.84135393   -23147.265    6398.9365    799.56403   -268.06123   -15.225037    843.44013    20.466334    44.564664    21493.626 
 4478000      8195040    9714.8441    -32690.54    271.57144   0.80611055   -22975.696    6511.7934     790.6696   -265.73544   -15.537534    834.27522    20.386334    44.222809    21560.575 
 4480000      8203040    9711.0834   -32737.511    271.46631   0.77538487   -23026.428    6606.7927    791.22144   -266.78147   -16.416167    835.14862    20.306334    44.167763    21627.567 
 4482000      8211040    9734.5028   -32581.136    272.12099   0.82897627   -22846.633    6510.9612    790.23592   -267.57181   -17.253281    834.48497    20.226334    44.068802    21694.446 
 4484000      8219040    9699.5354   -32614.635     271.1435   0.86313171   -22915.099    6620.7893    792.15727   -265.29621   -17.099218    835.57621    20.146334     44.01998    21761.389 
 4486000      8227040    9934.7422   -32545.234    277.71853   0.81324776   -22610.492    6365.1534    792.61056   -266.34772   -15.976485    836.31804    20.066334    43.961175     21828.57 
