LAMMPS (29 Oct 2020)
Reading data file ...
  orthogonal box = (0.0000000 0.0000000 0.0000000) to (1000.0000 1000.0000 1000.0000)
  3 by 4 by 6 MPI processor grid
  reading atoms ...
  12002 atoms
  scanning bonds ...
  600 = max bonds/atom
  reading bonds ...
  12000 bonds
Finding 1-2 1-3 1-4 neighbors ...
  special bond factors lj:    0.0      0.0      0.0     
  special bond factors coul:  0.0      0.0      0.0     
   600 = max # of 1-2 neighbors
   600 = max # of 1-3 neighbors
  1200 = max # of 1-4 neighbors
  1800 = max # of special neighbors
  special bonds CPU = 0.197 seconds
  read_data CPU = 0.234 seconds
Finding 1-2 1-3 1-4 neighbors ...
  special bond factors lj:    0.0      1.0      1.0     
  special bond factors coul:  0.0      0.0      0.0     
   600 = max # of 1-2 neighbors
   600 = max # of 1-3 neighbors
  1200 = max # of 1-4 neighbors
  1800 = max # of special neighbors
  special bonds CPU = 0.043 seconds
1 atoms in group centroid1
1 atoms in group centroid2
Neighbor list info ...
  update every 1 steps, delay 0 steps, check yes
  max neighbors/atom: 2000, page size: 100000
  master list distance cutoff = 43
  ghost atom cutoff = 43
  binsize = 21.5, bins = 47 47 47
  1 neighbor lists, perpetual/occasional/extra = 1 0 0
  (1) pair lj/expand, perpetual
      attributes: half, newton on
      pair build: half/bin/newton
      stencil: half/bin/3d/newton
      bin: standard
Setting up Verlet run ...
  Unit style    : real
  Current step  : 0
  Time step     : 4.0
Per MPI rank memory allocation (min/avg/max) = 193.8 | 194.0 | 197.0 Mbytes
Step Time KinEng PotEng Temp Press TotEng f_1 f_2[1] f_2[2] f_2[3] f_2[4] f_2[5] f_2[6] f_2[7] 
       0            0    9837.4929   -37771.155          275  0.075861616   -27933.662            0            0            0            0            0    200.03825    200.03825            0 
   20000        80000    9926.6954   -38088.722    277.49359   -0.1491922   -28162.027    227.94106   -1.1581611 0.0010685526 0.00061570685   -1.1581617    199.95825    199.92516 -0.027087802 
   40000       160000    9992.3761    -38223.48    279.32965   0.13972334   -28231.104    292.58489   -4.3036826  0.015218902 0.00030219951   -4.3037095    199.87825    199.75529 -0.025350985 
   60000       240000    9796.6035   -38072.701    273.85697   0.10229662   -28276.098    340.07992    2.2979803 -0.014867764 0.00015036948    2.2980284    199.79825    199.86391 0.0075673798 
   80000       320000    9727.9209   -38180.217    271.93699  0.015977407   -28452.296    513.78021    2.7290236 -0.024339549 0.00068964895    2.7291322    199.71825    199.79622 -0.0034365298 
  100000       400000    9823.3192   -38197.793    274.60379  0.037953653   -28374.474    434.10593   -12.550189   0.14942818 -0.026978138   -12.551107    199.63825    199.27965 -0.0020049905 
  120000       480000    9781.3254   -38169.557    273.42988  0.026702008   -28388.231    450.81839    7.3927007  -0.10737599  0.010154179    7.3934874    199.55825    199.76949 -0.012874613 
  140000       560000    9765.6511   -38120.743    272.99172 -0.041118771   -28355.092    416.19832    7.0624336  -0.10200975  0.022227519    7.0632053    199.47825    199.68006 -0.016636081 
  160000       640000    9909.7093    -38144.81    277.01876 0.0052782495   -28235.101    297.01848   0.53084756 -0.010164802 0.00057830378   0.53094519    199.39825    199.41342 0.0085419739 
  180000       720000    9779.4895    -38332.74    273.37856   0.04581371    -28553.25    614.24056    3.1618309 -0.059047553 0.0027434362    3.1623834    199.31825     199.4086 -0.038340873 
  200000       800000    9817.3127   -38348.426    274.43588  0.036097139   -28531.113    591.02403    3.0541483 -0.066328049 0.0022397549    3.0548692    199.23825    199.32553 -0.0028525635 
  220000       880000    9803.2305   -38293.246    274.04222  -0.10368638   -28490.016    553.08014  -0.43597329   0.01056533 -3.9885306e-05   -0.4361013    199.15825    199.14579 -0.0056580604 
  240000       960000     9849.264   -38335.431    275.32905  0.016129673   -28486.167    548.63454   0.42038245 -0.010604116 0.00042130294   0.42051639    199.07825    199.09026  0.026863878 
  260000      1040000    9830.5277   -38252.151    274.80529  0.032113246   -28421.623    481.87252   -9.2606684   0.24222314  -0.01904127   -9.2638552    198.99825    198.73357 -0.012607437 
  280000      1120000    9747.4306   -38068.934    272.48237 -0.0065166109   -28321.503    382.73673   -8.8407807    0.2494064 -0.0059637451      -8.8443    198.91825    198.66556 -0.013840186 
  300000      1200000    9649.7252   -38130.828    269.75109  -0.16229509   -28481.103    545.02936    -3.993283   0.11373631 -0.0026931099   -3.9949033    198.83825    198.72411 -0.033689715 
  320000      1280000    9865.0171   -38147.193    275.76942   0.01799836   -28282.176    342.39209  -0.74364465  0.021776797 -0.0015438442  -0.74396503    198.75825    198.73699 0.0024596312 
  340000      1360000    9817.4689   -38212.717    274.44024 -0.020480488   -28395.248    456.42414   0.14026481 -0.0043309766 -4.725173e-06   0.14033166    198.67825    198.68226 0.0032961549 
  360000      1440000    9908.1346   -38213.693    276.97474  0.032736128   -28305.558    366.03946    2.4260998 -0.079345475 -0.0047312122    2.4274015    198.59825     198.6676 -0.023156562 
  380000      1520000    9744.3281   -38262.507    272.39564  -0.11840384   -28518.179    581.04017  -0.94491551  0.032792963 0.00024797886   -0.9454844    198.51825    198.49124 -0.0051522245 
  400000      1600000    9809.4851   -38246.825    274.21706  0.028251712    -28437.34    497.44762  0.094035495 -0.0036337623 -0.00015876217  0.094105811    198.43825    198.44094 -0.0083459175 
  420000      1680000    9857.0425   -38182.077    275.54649 0.0020680104   -28325.034     386.1933    4.3300046  -0.17153243 0.00085289683     4.333401    198.35825    198.48206 -0.00040024084 
  440000      1760000    9874.7298   -38284.245    276.04093  0.021442074   -28409.515    468.78378   0.84558556 -0.034111694 0.00023417157   0.84627336    198.27825    198.30243 -0.0066165169 
  460000      1840000    9829.3411   -38353.605    274.77212  0.025453317   -28524.264    582.98289    4.9299133  -0.21916416 -0.0040938982    4.9347842    198.19825    198.33924 -0.010682935 
  480000      1920000    9900.9039   -38433.335    276.77261   0.12785125   -28532.431    589.06547    9.7555463  -0.44251251 -0.0029954727    9.7655778    198.11825    198.39727  0.014874612 
  500000      2000000    9858.8185   -38387.804    275.59614  -0.12718163   -28528.985    588.93906  -0.15996099 0.0076003664 0.00026813032  -0.16014167    198.03825    198.03367 0.0038627115 
  520000      2080000    9829.3096   -38409.828    274.77124  0.034200183   -28580.518    639.20993    6.4610927  -0.31964054 -0.011057806    6.4690039    197.95825    198.14308 -0.015578481 
  540000      2160000    9907.9518   -38307.855    276.96963  0.084047574   -28399.903    458.88141   -4.6539767   0.24528653  0.009450133   -4.6604457    197.87825    197.74509 -0.010695132 
  560000      2240000    9834.0883   -38310.341    274.90483 -0.0054155163   -28476.253    537.69667    2.2519114  -0.12171066 -0.0028953788       2.2552    197.79825    197.86268  0.035651037 
  580000      2320000    9887.1832   -38283.479    276.38906 -0.029380166   -28396.296    456.74467    -1.902618   0.10292922 -0.00037392441   -1.9054002    197.71825    197.66381 -0.014493471 
  600000      2400000    9897.3324   -38457.658    276.67277  -0.11294987   -28560.325    621.75475   -1.9193765   0.11120167 0.0025214549   -1.9225968    197.63825    197.58332 -0.026814319 
  620000      2480000    9852.8084   -38353.642    275.42813 -0.052870255   -28500.833    560.93459    7.3180353  -0.43817696 -0.0063368676    7.3311445    197.55825    197.76771 0.0058090249 
  640000      2560000    9904.3898   -38480.223    276.87005  0.021950648   -28575.834    636.41315  -0.56071537  0.034629285 3.4304993e-05  -0.56178369    197.47825     197.4622 -0.011411181 
  660000      2640000    9754.4953   -38296.819    272.67986  0.083674217   -28542.324    602.70787  -0.70795897   0.04467609 0.0015238562  -0.70936886    197.39825    197.37798 -0.013497785 
  680000      2720000    9846.4531   -38493.643    275.25048 0.0085503443    -28647.19    708.06134   -2.9447002   0.19533388 0.0019709296   -2.9511724    197.31825    197.23393 -0.0027078011 
  700000      2800000    9954.1671   -38176.397    278.26154 -0.025974621   -28222.229    284.67016    -3.055124   0.20801102 0.0054273333    -3.062202    197.23825    197.15076  0.012572978 
  720000      2880000    9884.1726   -38401.374     276.3049  0.047112375   -28517.202    574.48501   -4.3326839   0.29833964 0.0083453076   -4.3429513    197.15825    197.03417 -0.0010159546 
  740000      2960000    9812.7055   -38274.087    274.30709  0.017520607   -28461.381    519.87426    3.7553081  -0.26830335 -0.0085345582    3.7648903    197.07825    197.18582 -0.003191306 
  760000      3040000    9891.3619   -38244.192    276.50587 -0.072499584    -28352.83     414.1327   -1.9459584   0.14556812 0.0034169998   -1.9513985    196.99825     196.9425 -0.0063460642 
  780000      3120000     9744.767   -38315.247    272.40791  -0.01949497    -28570.48    630.36075   0.71156044  -0.05262042 -0.00072451692   0.71350382    196.91825    196.93864 0.0085336389 
  800000      3200000     9798.328   -38215.413    273.90517 -0.063547749   -28417.085    479.12024   -3.5739768   0.28443354 0.00069044118   -3.5852773    196.83825    196.73581   0.02731998 
  820000      3280000    9743.1639   -38153.164     272.3631  0.063033739       -28410    469.57096    3.2009673  -0.26086718 -0.012108111    3.2116024    196.75825    196.85001  0.015697209 
  840000      3360000    9819.6369   -38336.851    274.50085 -0.075863602   -28517.214    578.32741    1.1148622 -0.091001442 -0.00093439474    1.1185705    196.67825    196.71021 -0.018887548 
  860000      3440000    9794.2027   -38406.177    273.78985 -0.00085502991   -28611.974    670.58803   -2.3446385   0.19489179 0.0020563336   -2.3527253    196.59825    196.53103 0.0057719954 
  880000      3520000    9837.2793    -38276.75    274.99403  0.015183147    -28439.47    497.74342   -4.1100068   0.34863669 0.0091887465   -4.1247773    196.51825     196.4004 -0.010179175 
  900000      3600000     9831.686   -38386.995    274.83767 0.0062545782   -28555.309    616.58998   -2.9750335   0.26252863 0.0030268919   -2.9865958    196.43825    196.35292  0.015935491 
  920000      3680000    9912.9857   -38457.059    277.11035  -0.10373944   -28544.073    603.62304   -2.5398104   0.23063447 -0.0032585683   -2.5502627    196.35825    196.28538  0.010878578 
  940000      3760000    9807.5354   -38137.537    274.16256 -0.063111997   -28330.002    389.03924     8.824359  -0.80932237 -0.019503606     8.861416    196.27825    196.53143 -0.00043721156 
  960000      3840000    9794.4702   -38140.262    273.79733 -0.083243156   -28345.791    406.01034    2.2371017  -0.21260326 -0.00094723764    2.2471816    196.19825    196.26245  0.013761153 
  980000      3920000    9765.5797   -38278.744    272.98972 -0.006784755   -28513.165     572.0205    6.2741274  -0.59727178 -0.002530339    6.3024927    196.11825    196.29832 0.0077531971 
 1000000      4000000    9703.2268   -38366.207    271.24669 0.0039234536   -28662.981    721.84858   -1.5724465   0.15223749 -0.0017218547   -1.5797997    196.03825    195.99311 -0.00018498773 
 1020000      4080000    9868.3806   -38242.781    275.86344 -0.043368031   -28374.401    435.76068    3.7788411  -0.37926163 0.0034030935    3.7978271    195.95825    196.06676 0.0067267415 
 1040000      4160000    9765.7578   -38316.875     272.9947   0.11793421   -28551.117     608.7019    8.6439153  -0.87126309 0.0069023273    8.6877166    195.87825    196.12647 -0.0095761859 
 1060000      4240000    9810.8795   -38304.273    274.25604 -0.066425161   -28493.393    553.52922   -10.734705    1.0970953 -0.010986777   -10.790627    195.79825    195.48995 0.0080254081 
 1080000      4320000     9795.519   -38362.161    273.82665   0.03362805   -28566.642    626.12545    -5.138673   0.53380016 -0.0038246819   -5.1663253    195.71825    195.57064 -0.0092553879 
 1100000      4400000     9819.265   -38251.715    274.49045   0.12740749    -28432.45    490.97668    1.1458486  -0.12223649 2.5651699e-05    1.1523501    195.63825    195.67117 -0.0021610914 
 1120000      4480000    9752.4854   -38303.077    272.62368   -0.0433952   -28550.592    608.36595   -4.3123659   0.46710874 -0.0018841363   -4.3375908    195.55825    195.43432 -0.022311957 
 1140000      4560000    9797.0098   -38199.923    273.86832 -0.032502961   -28402.913    463.36074   -1.0545418   0.11713348 0.0006791295   -1.0610274    195.47825    195.44793  -0.01118989 
 1160000      4640000    9700.4192   -38607.999     271.1682  0.037187058    -28907.58    964.80255    5.9495778  -0.68405355 -0.0035597423    5.9887743    195.39825    195.56936 -0.0030588641 
 1180000      4720000    9919.3448   -38538.285    277.28811  0.082891827   -28618.941    678.54323            0            0            0            0    195.31825    195.31823 -0.0030679863 
 1200000      4800000     9787.058   -38445.465    273.59013  0.010002537   -28658.407    718.54121    2.1326186  -0.25094277 -0.0034292016    2.1473347    195.23825     195.2996   0.01679235 
 1220000      4880000     9761.127   -38421.474    272.86525  0.042569587   -28660.347    719.37446   -2.4284817   0.28865703  0.005119922   -2.4455822    195.15825    195.08838 -0.00077800732 
 1240000      4960000    9765.5498   -38528.654    272.98888 -0.006105394   -28763.104    821.25324    -3.352834   0.40836202 -0.0028974404   -3.3776122    195.07825    194.98175  0.016513556 
 1260000      5040000      9896.98   -38297.812    276.66292  0.018069713   -28400.832     459.0701   -10.583718    1.3086712 0.0045276995    -10.66432    194.99825    194.69355 -0.016446496 
 1280000      5120000    9826.5638   -38530.259    274.69449  0.088759657   -28703.695    763.24485  -0.48891088  0.062001176 0.00090148352  -0.49282736    194.91825    194.90417  0.015494968 
 1300000      5200000    9677.2829   -38461.865    270.52145  0.061669014   -28784.582    842.79081   0.19865897 -0.025298989 -0.0002541426   0.20026355    194.83825    194.84397  0.011791785 
 1320000      5280000     9860.771   -38497.991    275.65072  0.019950803    -28637.22    697.55138  -0.27682279  0.035608103 3.7897415e-05  -0.27910355    194.75825    194.75028 -0.0009827206 
 1340000      5360000    9823.2334   -38347.314    274.60139 -0.051658482    -28524.08    585.53769    3.6473421   -0.4772083 -0.0024185194    3.6784287    194.67825    194.78335 -0.021630931 
 1360000      5440000    9860.1199   -38469.061    275.63252 -0.025303012   -28608.941    668.08895   -3.9172562   0.52129285 0.0078839769   -3.9517976    194.59825    194.48534  -0.02024662 
 1380000      5520000       9796.7   -38396.576    273.85966  0.034220236   -28599.876    657.86825   0.75638357   -0.1015778 -0.0024909481    0.7631778    194.51825    194.54005 0.00046619762 
 1400000      5600000    9716.6812   -38287.634     271.6228 -0.085156874   -28570.953    632.91184   0.67450521 -0.091187362 -0.0025008998   0.68064577    194.43825     194.4577 -0.011287832 
 1420000      5680000    9726.7661   -38466.888    271.90471 -0.076357063   -28740.122     801.9169   0.47137842 -0.065422782 -0.0016904719    0.4758998    194.35825    194.37185 -0.015185292 
 1440000      5760000    9850.3765   -38461.789    275.36015  -0.06598438   -28611.412    672.97282    1.7308469  -0.24681598 -0.0057812569    1.7483657    194.27825     194.3282  0.004513584 
 1460000      5840000    9913.3553   -38459.687    277.12068 -0.012624164   -28546.332    607.57443   -1.9785935   0.28685143 0.0023364749   -1.9992802    194.19825    194.14113 -0.00027413061 
 1480000      5920000     9837.394   -38574.979    274.99724 -0.010555814   -28737.585    796.67088   -4.3265311   0.63426715 0.0036772543   -4.3727771    194.11825    193.99331 0.0036142572 
 1500000      6000000    9859.5553   -38403.616    275.61674  0.010642008   -28544.061    604.49082   -2.7102038    0.4033756 0.0035635772   -2.7400601    194.03825    193.95996 -0.018538064 
 1520000      6080000    9835.3992   -38377.369    274.94147  0.081312645   -28541.969    602.24946  -0.64468226  0.096643702 0.00097534776  -0.65188662    193.95825    193.93962 0.0048649861 
 1540000      6160000    9819.8262   -38384.893    274.50614 -0.058778999   -28565.067    624.99134   -4.6815491   0.70928155 0.0053584901   -4.7349774    193.87825    193.74296  -0.00344998 
 1560000      6240000    9812.9471   -38391.041    274.31384  0.071181302   -28578.094    638.67448    -3.259004   0.49896224 0.0055335222   -3.2969836    193.79825    193.70405  0.021684743 
 1580000      6320000    9857.9835   -38461.164     275.5728  0.064541414    -28603.18    660.67007   -2.4257906   0.38007718 0.0016520787   -2.4553862    193.71825     193.6481 -0.026363419 
 1600000      6400000    9896.2166   -38428.455    276.64158 0.0086380425   -28532.239    592.67584     2.097088  -0.33125059 -0.0024645513      2.12309    193.63825    193.69891  0.022057667 
 1620000      6480000    9835.6332   -38437.393    274.94801 -0.090026055    -28601.76    661.42735    2.0577838  -0.33080923 0.0015633877    2.0842052    193.55825     193.6178 -0.018066877 
 1640000      6560000    9798.7794   -38419.305    273.91779  0.073995435   -28620.526    678.48095    9.8738286    -1.595273 -0.014654328     10.00188    193.47825    193.76402 0.0010729189 
 1660000      6640000    9852.2268   -38498.478    275.41188 0.0025456582   -28646.251     707.3867   -3.4225547   0.55587716 0.0081173178    -3.467412    193.39825    193.29918 -0.017850606 
 1680000      6720000    9957.2226   -38403.085    278.34696 -0.048374144   -28445.863    505.84846    3.8453317   -0.6306155 -0.0063823477    3.8967028    193.31825    193.42958  0.021188259 
 1700000      6800000    9746.4438    -38413.15    272.45479 -0.0020085571   -28666.706    727.74262   -6.0224636     1.007096  0.011339847   -6.1060985    193.23825    193.06379 -0.015052045 
 1720000      6880000    9829.4321   -38478.122    274.77467 -0.033893497    -28648.69    711.61475   -3.4432012   0.58271928 0.0048891013   -3.4921655    193.15825    193.05847 -0.003724387 
 1740000      6960000    9850.8095   -38467.993    275.37226  0.036635317   -28617.183    674.76914   -11.213937    1.9091447  0.013018931   -11.375297    193.07825    192.75324 -0.023311563 
 1760000      7040000    9886.0068   -38407.769    276.35617  0.041653749   -28521.762    582.15907    2.5532729  -0.43654378 -0.0032084311    2.5903249    192.99825    193.07226 0.0092190166 
 1780000      7120000    9853.2737   -38484.542    275.44114 0.0067329478   -28631.268    688.71129    1.8928937  -0.32997984 -0.0023504924    1.9214419    192.91825    192.97315 -0.027375913 
 1800000      7200000     9871.347   -38441.866    275.94637 -0.069399038   -28570.519    632.73861   -4.4019802   0.78543974  0.013061476   -4.4715228    192.83825    192.71049 -0.00024837352 
 1820000      7280000    9806.5477   -38667.839    274.13495 -0.070607472   -28861.291    920.26439    1.1802699  -0.21126539 -0.004139775     1.199036    192.75825    192.79251 -0.0071841476 
 1840000      7360000    9758.1492   -38498.961      272.782  -0.15984941   -28740.812    802.94336   0.54864457 -0.098841223 -0.0011014465   0.55747795    192.67825    192.69418 0.0061221953 
 1860000      7440000    9906.9479   -38599.707    276.94156 -0.028221513    -28692.76    753.66398    1.4885098  -0.27298519 -0.004387595    1.5133412    192.59825    192.64149 0.0015821516 
 1880000      7520000    9655.0238   -38481.436    269.89921   0.09448244   -28826.412    883.21408   -1.6706145   0.30537858 0.0072927612   -1.6983115    192.51825    192.46973 0.0078923397 
 1900000      7600000    9783.5785   -38444.005    273.49286 -0.053110503   -28660.426    721.51689   -2.1664957    0.4026492 0.0089030104   -2.2036128    192.43825    192.37529  0.018957425 
 1920000      7680000    9929.5908   -38571.584    277.57453 -0.0062102303   -28641.993    699.13864   0.25040529 -0.047755424 -0.0012924435   0.25492168    192.35825    192.36553 0.0031690528 
 1940000      7760000    10030.995     -38454.2     280.4092  0.035906717   -28423.205    481.42753     0.766854  -0.14717298 -0.0033162628    0.7808559    192.27825    192.30056 -0.00023604134 
 1960000      7840000    9872.4146   -38475.308    275.97621    0.1710492   -28602.893     660.8928    -3.249769   0.63133318  0.012522466   -3.3105494    192.19825    192.10366 -0.0034790427 
 1980000      7920000    9773.7389   -38400.865     273.2178   0.01881638   -28627.126    687.02598    -3.378313    0.6556741  0.012866076   -3.4413766    192.11825    192.01992 -0.0021211447 
 2000000      8000000    9757.5111   -38569.113    272.76417 -0.011799886   -28811.602    869.76226    2.7066096  -0.53026941 -0.011637368    2.7580893    192.03825    192.11705 0.0044046718 
 2020000      8080000    9927.9312   -38375.706    277.52814 -0.032119259   -28447.774    508.98476    1.6818985  -0.33132391 -0.0077663272    1.7142399    191.95825    192.00723 -0.015279604 
 2040000      8160000    9840.0777   -38580.881    275.07226  0.056818601   -28740.803     800.5351    1.1998069  -0.23951821 -0.0061291334    1.2234963    191.87825    191.91321 -0.012763177 
 2060000      8240000    9854.2857   -38575.031    275.46943   -0.1207869   -28720.745    783.87844   -1.6414047   0.33080113 0.0044285222   -1.6744128    191.79825    191.75041 -0.022823252 
 2080000      8320000    9824.3753   -38584.901    274.63331   0.13202008   -28760.526    818.13994    2.8491156  -0.57988073 -0.010203256    2.9075463    191.71825    191.80132  0.012471249 
 2100000      8400000    9825.4835   -38552.288    274.66429  -0.10157306   -28726.804    787.13631    7.7107736   -1.5841239 -0.034271091      7.87189    191.63825    191.86316  -0.01967975 
 2120000      8480000    9785.0379   -38528.547    273.53366 -0.052225341    -28743.51     803.5678    1.7054828  -0.35152995 -0.0062478615    1.7413454    191.55825      191.608 -0.00093934339 
 2140000      8560000    9769.8002   -38510.899     273.1077 -0.011950309   -28741.099    801.53122    6.5374269   -1.3699666 -0.027370581    6.6794842    191.47825    191.66909 0.0009799036 
 2160000      8640000    9891.5919   -38461.797     276.5123 -0.036672114   -28570.205      630.884  -0.59213602   0.12563946 0.0024091177  -0.60532317    191.39825    191.38095 -0.011833781 
 2180000      8720000    9822.6004   -38344.463    274.58369   0.02623418   -28521.862    583.41033    6.6725343   -1.4244948 -0.030574025    6.8229637    191.31825    191.51319  0.020821885 
 2200000      8800000    9911.2405   -38542.983    277.06156  0.076022746   -28631.742    689.20883    3.7383585  -0.79887418  -0.01580995    3.8227966    191.23825    191.34747 -0.021394766 
 2220000      8880000    9683.1871   -38294.926    270.68649 -0.051040395   -28611.739    674.08431    4.2923097  -0.92947872 -0.017725663    4.3918296    191.15825    191.28373 -0.0022997577 
 2240000      8960000     9851.823   -38472.555    275.40059 -0.067745377   -28620.732    683.11592    1.1870673  -0.26100255 -0.0072527289    1.2154438    191.07825    191.11298 -0.004231782 
 2260000      9040000    9821.3776   -38561.922    274.54951 -0.055123948   -28740.545    800.50162   -1.5703888   0.34703574  0.011035019   -1.6083149    190.99825     190.9523 -0.005916379 
 2280000      9120000    9900.4419   -38639.099    276.75969 -0.0013163668   -28738.657    794.54381   -3.8609844   0.85889967  0.023945861   -3.9554371    190.91825    190.80524 0.00065594027 
 2300000      9200000    9889.9155   -38433.372    276.46544  0.022079527   -28543.457    602.42672    5.2255788   -1.1760673 -0.025941155    5.3563496    190.83825    190.99129 -0.032127589 
 2320000      9280000    9868.5646   -38426.316    275.86859  0.032624013   -28557.752    619.71979    -4.575114    1.0370615   0.03532071   -4.6913124    190.75825    190.62421 -0.0052879932 
 2340000      9360000    9851.0614   -38558.457     275.3793  0.067916366   -28707.396    769.44965  -0.86343705   0.19759604 0.0081508787  -0.88579578    190.67825    190.65294 -0.008693829 
 2360000      9440000    9758.7816   -38449.008    272.79968  -0.02075897   -28690.226    750.60154    4.1761959  -0.97206937 -0.036387897    4.2879896    190.59825    190.72076 -0.0073868575 
 2380000      9520000    9696.9546   -38435.662    271.07135 -0.088925355   -28738.707    799.52199   -1.5130122   0.35114332  0.014234036   -1.5532901    190.51825    190.47387 -0.012086928 
 2400000      9600000    9865.3407   -38492.967    275.77846 -0.027953626   -28627.627    687.57186   0.10076827 -0.023740965 -0.00099371314   0.10353195    190.43825    190.44121 -0.0076333541 
 2420000      9680000    9825.1178   -38657.501    274.65406   0.12738367   -28832.383    891.59786   -4.2635823    1.0091395  0.040994362   -4.3815724    190.35825    190.23306  -0.01515754 
 2440000      9760000    9850.4562   -38726.679    275.36238  0.017651821   -28876.223    933.32429    4.6129749   -1.1064063  -0.04900381    4.7440566    190.27825    190.41379 -0.0044777141 
 2460000      9840000    9711.9841   -38579.517    271.49149  0.031326123   -28867.533    927.35431  -0.44352085   0.10651072 0.0047885175   -0.4561559    190.19825    190.18522 0.0047844573 
 2480000      9920000    9747.0259   -38552.422    272.47106  -0.16040962   -28805.396    869.56047     2.221876  -0.54203995 -0.024007102    2.2871635    190.11825     190.1836 -0.0011510744 
 2500000     10000000    9770.6633   -38679.401    273.13183  0.083078127   -28908.738    966.60211   -4.3942256     1.075981  0.054928348   -4.5243752    190.03825    189.90898 -0.034012445 
 2520000     10080000    9769.6759   -38623.781    273.10422 -0.060144431   -28854.105    915.03253    1.9815202  -0.49211049  -0.02392172    2.0418539    189.95825    190.01659 -0.020582648 
 2540000     10160000    9884.7085   -38375.401    276.31988  -0.12098246   -28490.692     554.7306    2.2513871  -0.56234058 -0.028821311    2.3207329    189.87825    189.94456 -0.021032231 
 2560000     10240000    10020.372   -38616.685    280.11225  0.061805894   -28596.313    656.38799    2.7564783  -0.69806953  -0.03707265    2.8437384    189.79825     189.8795 -0.018758315 
 2580000     10320000     9835.676   -38531.454    274.94921 -0.067438589   -28695.778    756.44559    1.5268888  -0.39009228 -0.021854993    1.5760834    189.71825    189.76328 -0.014780802 
 2600000     10400000    9832.3655   -38698.172    274.85667    0.1552263   -28865.807    923.30139    3.6913332   -0.9536257 -0.051136591    3.8128674    189.63825    189.74719 -0.014319956 
 2620000     10480000    9682.9624   -38632.245    270.68021 -0.040217127   -28949.282    1008.7243   -1.2969125   0.33531769  0.017119421    -1.339669    189.55825    189.51997 -0.011394005 
 2640000     10560000    9747.4846     -38598.2    272.48388  -0.04673002   -28850.716    909.82587    3.6698843  -0.95419527 -0.054743879    3.7922996    189.47825     189.5866 -0.016637606 
 2660000     10640000    9866.8174   -38500.945    275.81974  -0.10661577   -28634.128    693.64697   0.89822781  -0.23595842 -0.015209939   0.92882771    189.39825    189.42479 -0.012465192 
 2680000     10720000    9909.2663   -38575.501    277.00637  -0.07835558   -28666.235    724.31294    4.2879098   -1.1359076 -0.063867653    4.4362749    189.31825      189.445 -0.0054082056 
 2700000     10800000    9826.1766   -38564.577    274.68366  0.086390979     -28738.4    796.72483   -5.1997459    1.3839147  0.083856372   -5.3814133    189.23825    189.08449 0.0016515024 
 2720000     10880000    9918.7156   -38466.904    277.27052  0.022138897   -28548.188    608.00657    2.6429889  -0.71303503 -0.040262175    2.7377783    189.15825    189.23647 -0.0018406946 
 2740000     10960000    9867.5756   -38470.658    275.84094  0.005364582   -28603.083    662.91145   -1.3563843   0.36629647  0.021158648   -1.4051331    189.07825     189.0381 -0.0033220351 
 2760000     11040000    9849.6179   -38649.157    275.33895  0.090482726   -28799.539    858.00884   -5.3575142    1.4655325  0.095455514   -5.5551647    188.99825    188.83953 0.0019498367 
 2780000     11120000    9831.0635   -38686.231    274.82027 0.0039039906   -28855.168    912.29283    5.0148863    -1.383206 -0.092252928    5.2029659    188.91825    189.06691 -0.0077883837 
 2800000     11200000     9990.325   -38541.136    279.27231 -0.046566884   -28550.811    611.32299    5.6122553   -1.5552075  -0.10089318    5.8246252    188.83825    189.00467 -0.026866996 
 2820000     11280000    9875.0304   -38587.664    276.04933  0.033909896   -28712.633     773.1657   -5.2413169    1.4643007  0.093356167   -5.4428205    188.75825    188.60274 -0.012128692 
 2840000     11360000    9870.5105   -38616.907    275.92298  0.046657727   -28746.397     804.0778    1.0502206  -0.29558909 -0.019853297    1.0912059    188.67825    188.70943  0.014270113 
 2860000     11440000    9807.1881   -38380.166    274.15285 -0.0028830559   -28572.978    634.58906  -0.98588035    0.2789077  0.019312295   -1.0247549    188.59825    188.56897 0.0053577884 
 2880000     11520000    9788.2302   -38627.547     273.6229  0.016470479   -28839.317    895.66246    1.4741025  -0.42304026 -0.028557955    1.5338698    188.51825    188.56207 -0.027335499 
 2900000     11600000    9827.1252   -38603.959    274.71018 -0.0027074078   -28776.834    834.50736   -2.7063921    0.7808859  0.050504383   -2.8172489    188.43825    188.35776 0.00082096638 
 2920000     11680000    9804.9019   -38574.182    274.08894  0.033749299    -28769.28    827.62697    2.6281798  -0.76329268 -0.052372455    2.7372774    188.35825    188.43646 -0.034313493 
 2940000     11760000    9978.6797   -38619.285    278.94677  0.028675907   -28640.605    698.21801    4.9065672    -1.427213 -0.099945989    5.1109029    188.27825    188.42428 -0.0059677657 
 2960000     11840000    9879.5307   -38586.589    276.17514 -0.058492779   -28707.059    765.93025    1.9121584  -0.56667831 -0.039401716    1.9947497    188.19825    188.25524 0.0061140955 
 2980000     11920000    9800.3435   -38639.655    273.96152  0.060316093   -28839.311     895.1709   0.72320275    -0.215155 -0.014950838   0.75467703    188.11825    188.13981   0.02105968 
 3000000     12000000    9788.2501   -38457.875    273.62345  0.078213882   -28669.624    730.91948   -1.2257586   0.36514655  0.025390499   -1.2792422    188.03825     188.0017 -0.0042826815 
 3020000     12080000    9827.9857   -38526.618    274.73423 3.9138174e-05   -28698.632    759.27611   -1.3638261    0.4085614  0.026523048   -1.4239549    187.95825    187.91757 0.0061032549 
 3040000     12160000     9926.084   -38743.802     277.4765  0.086914059   -28817.718    873.96088   -3.3407851    1.0157003  0.067217871   -3.4924219    187.87825    187.77847 -0.017973615 
 3060000     12240000    9902.8176    -38572.73     276.8261 -0.085390113   -28669.913    729.24538   -6.7697234    2.0595031   0.15151247   -7.0776877    187.79825    187.59603 -0.005817511 
 3080000     12320000      9832.85   -38624.687    274.87021 0.00087827646   -28791.837    849.00811  -0.29871015  0.090796229 0.0058685295  -0.31225974    187.71825    187.70933 -0.012530185 
 3100000     12400000    9846.8494   -38635.346    275.26155  0.052664972   -28788.496    846.59839   -2.6268366   0.81404505  0.055906024   -2.7506481    187.63825    187.55966  0.016649707 
 3120000     12480000    9820.3899   -38485.186     274.5219 -0.085956919   -28664.796     725.6658    4.6945189   -1.4632697 -0.098386905    4.9182666    187.55825    187.69877 -0.020659252 
 3140000     12560000     9713.327   -38545.311    271.52903  0.060147619   -28831.984    894.22208    1.4915145  -0.46971624 -0.029332975    1.5640043    187.47825    187.52294  0.023108815 
 3160000     12640000    9826.8193   -38648.947    274.70163  0.020618829   -28822.128      882.574    1.9118688  -0.60809675  -0.03735653     2.006594    187.39825    187.45558  0.020456754 
 3180000     12720000    9809.1926   -38587.565    274.20889 -0.051689772   -28778.373    840.62952    1.6403554  -0.52513508 -0.033827424    1.7226947    187.31825    187.36747 -0.020348617 
 3200000     12800000    9775.2768    -38514.72    273.26079   -0.0200959   -28739.443    800.50923    2.5606683  -0.81862941 -0.055942122    2.6889228    187.23825    187.31508 -0.0091112407 
 3220000     12880000    9798.1454   -38726.693    273.90007   0.11766888   -28928.548    985.53472    1.6260742  -0.52431001  -0.03235151    1.7088197    187.15825    187.20707 0.0094793357 
 3240000     12960000    9705.1254   -38667.313    271.29976 -0.0070532766   -28962.187    1020.0829    5.8874179   -1.9275733  -0.13137844    6.1963286    187.07825    187.25529 0.0095736283 
 3260000     13040000    9793.4817    -38557.78     273.7697   0.05871503   -28764.299    824.35724  -0.23786202  0.078137377 0.0051626401  -0.25042054    186.99825    186.99109 -0.013970142 
 3280000     13120000     9759.045   -38548.325    272.80705  0.070900259    -28789.28    850.18195   0.18965823 -0.062598191 -0.0043991976    0.1997702    186.91825    186.92396 -0.0077134933 
 3300000     13200000    9863.6119   -38328.425    275.73014 -0.057012525   -28464.813    528.26816   -3.6289057    1.2087584  0.089053172   -3.8259618    186.83825    186.72894 -0.019788322 
 3320000     13280000    9699.0386   -38423.162    271.12961 -0.059125578   -28724.124    785.99058   -4.8088551    1.6121811   0.11658344   -5.0732442    186.75825     186.6133  0.010019162 
 3340000     13360000    9975.9449   -38404.782    278.87033  -0.01129462   -28428.837    488.66265    2.8022753  -0.95221908 -0.068707335    2.9604372    186.67825    186.76283  0.021218728 
 3360000     13440000    9992.4821   -38481.684    279.33261 -0.0085881743   -28489.202    548.33302    2.5760082   -0.8753873 -0.066229053    2.7214899    186.59825    186.67601  0.004184092 
 3380000     13520000    9723.1808   -38483.272    271.80449  -0.18277644   -28760.091    823.83003    1.0633021  -0.36519011 -0.026729841    1.1245842    186.51825    186.55038 -0.016442002 
 3400000     13600000    9816.7736   -38459.285    274.42081 0.0057787804   -28642.512    700.59114  -0.73917027   0.25420011  0.016322432  -0.78182914    186.43825    186.41591 0.0008306081 
 3420000     13680000    9724.9179   -38488.577    271.85305   0.06735153   -28763.659    823.08779    0.6611062  -0.22792168 -0.016827349   0.69949472    186.35825    186.37824 -0.025416537 
 3440000     13760000    9857.7185   -38623.756    275.56539  0.057847943   -28766.037    824.21989    3.5917596   -1.2487391 -0.093715565    3.8037966    186.27825    186.38693 -0.022651114 
 3460000     13840000    9981.1437   -38384.278    279.01566  0.025297966   -28403.134    465.91832   -0.7386823   0.25950223  0.018974762  -0.78316855    186.19825    186.17587 -0.013550822 
 3480000     13920000    9766.8243   -38455.155    273.02451  0.050439248   -28688.331    749.35824   -3.0149186    1.0726878   0.07585748   -3.2009604    186.11825    186.02679 -0.015373158 
 3500000     14000000    9816.4208    -38407.48    274.41095 -0.046340546   -28591.059    650.84451   -3.7388908    1.3319753  0.097347554   -3.9702568    186.03825    185.92481 -0.012723681 
 3520000     14080000    9916.7685   -38462.711    277.21609 -0.022469657   -28545.943    608.39001     1.926606  -0.68929445 -0.052178698    2.0468659    185.95825    186.01673  0.031982568 
 3540000     14160000    9854.1475   -38670.432    275.46557 -0.050239847   -28816.285      875.395  -0.50511605   0.18351122  0.013802452  -0.53759566    185.87825    185.86289 -0.017400143 
 3560000     14240000     9935.861   -38464.381    277.74981  0.094998814    -28528.52    586.88957    8.1361026   -2.9729337  -0.24578233    8.6657319    185.79825    186.04584 0.0090613269 
 3580000     14320000    9861.2621   -38335.181    275.66445  -0.16216907   -28473.919    533.28146    3.9530539   -1.4429019  -0.11911274    4.2098442    185.71825    185.83853  -0.01150708 
 3600000     14400000     9720.201    -38420.31    271.72119 -0.049664981   -28700.109    758.52443   -2.8067436    1.0330146  0.080871712   -2.9919006    185.63825    185.55277 -0.0041893561 
 3620000     14480000    9767.0945   -38486.585    273.03207 -0.037453537    -28719.49    779.07452   -3.5200777    1.3104253   0.10567307   -3.7575695    185.55825    185.45089 -0.0076697878 
 3640000     14560000    9867.9336   -38527.084    275.85095  0.023406288   -28659.151    717.90675  -0.74361172   0.27789141  0.021135558  -0.79412136    185.47825    185.45556 0.0062716936 
 3660000     14640000    9877.2718   -38591.493    276.11199  0.011404883   -28714.221    774.35274   0.53416018  -0.20166806   -0.0156474   0.57117593    185.39825    185.41457 -0.015416487 
 3680000     14720000    9867.0717   -38456.282    275.82686  0.052486162    -28589.21    647.51663    7.9152362    -3.001311  -0.23318455     8.468365    185.31825     185.5602 0.0025488655 
 3700000     14800000    9798.9167    -38511.43    273.92163 -0.042655757   -28712.513    772.89809    5.5814383   -2.1360864  -0.16143379    5.9784094    185.23825    185.40906 -7.9892356e-05 
 3720000     14880000    9743.9038   -38533.431    272.38378 -0.034175893   -28789.527    847.22824    2.5343227  -0.97137996 -0.079838601    2.7152798    185.15825    185.23583 0.0025193512 
 3740000     14960000    9753.7992   -38421.795     272.6604 -0.022585366   -28667.996    730.13257  -0.22618218  0.087336688 0.0071429061  -0.24256359    185.07825    185.07132 -0.016815267 
 3760000     15040000    9685.2514   -38535.672     270.7442     0.103229   -28850.421    907.98022 -0.040023046  0.015512488 0.0012310002 -0.042941784    184.99825    184.99702  0.016334624 
 3780000     15120000    9758.2934   -38505.464    272.78604 -0.0045284425    -28747.17    805.56265   -8.2716409    3.2271907   0.25558319   -8.8825743    184.91825    184.66446 -0.048195887 
 3800000     15200000    9846.1429   -38362.556     275.2418 0.0070883327   -28516.413    576.12302    3.1032152   -1.2201961  -0.08779524    3.3356455    184.83825    184.93355 -0.013908959 
 3820000     15280000    9775.3832   -38610.825    273.26377  0.078869377   -28835.442    892.51041    4.9586046   -1.9640842  -0.14787726    5.3354713    184.75825    184.91069 -0.021196044 
 3840000     15360000    9805.7293   -38664.742    274.11207 -0.083104882   -28859.012    918.95468   -1.8401485   0.72837021  0.057678863   -1.9798981    184.67825    184.62168 -0.0066431423 
 3860000     15440000     9894.772   -38570.093     276.6012 -0.060407762   -28675.321    734.95809  -0.89902746   0.35797498  0.027189949  -0.96805772    184.59825    184.57059 -0.035614549 
 3880000     15520000    10008.189   -38665.108     279.7717  0.058735019   -28656.918     711.4496    1.3360847   -0.5354932 -0.040975682    1.4399841    184.51825    184.55939 0.0086608396 
 3900000     15600000    9771.6949   -38583.688    273.16066  0.045577037   -28811.993    870.52339   0.23842681 -0.096659802 -0.0073240206    0.2573793    184.43825     184.4456 -0.027390354 
 3920000     15680000    9824.9745   -38530.129    274.65006  0.031141007   -28705.155    764.16444    4.8080838   -1.9624352  -0.14528367    5.1951832    184.35825    184.50668  -0.01473958 
 3940000     15760000    9902.3478   -38444.134    276.81297 -0.027229969   -28541.786    598.66436    5.8396656   -2.3856509  -0.17523075    6.3106046    184.27825    184.45855 -0.0065110665 
 3960000     15840000     9789.211   -38410.597    273.65032  -0.05890358   -28621.386     680.9175    8.9909823   -3.6899618  -0.30468753    9.7234981    184.19825    184.47606 -0.014733418 
 3980000     15920000    9869.8427   -38574.483    275.90432  0.023246178    -28704.64    763.85002    2.9159972   -1.2072745 -0.097436745    3.1575379    184.11825    184.20846 -0.015814044 
 4000000     16000000    9811.1028   -38563.013    274.26228  -0.10720902   -28751.911    810.25394   -1.3614281    0.5662275   0.04580531   -1.4751943    184.03825     183.9961 -0.026021285 
 4020000     16080000    9846.2327   -38556.709    275.24431  0.052194494   -28710.477     768.7107    2.9489933   -1.2328445  -0.09479818    3.1977264    183.95825    184.04961 -0.018367765 
 4040000     16160000    9807.1832   -38617.043    274.15272 0.0098012122    -28809.86    865.59241   -1.5769687   0.65906094  0.055572428   -1.7100526    183.87825    183.82939 -0.021214934 
 4060000     16240000    9824.4298   -38471.355    274.63483    0.1030529   -28646.926    704.98154   -1.3109839   0.55280741  0.043581304   -1.4234375    183.79825    183.75758 -0.0043354633 
 4080000     16320000    9721.3129   -38533.253    271.75227 -0.024273527    -28811.94    872.56875 -0.097544405  0.041571743 0.0031975568  -0.10608178    183.71825    183.71522  0.013520386 
 4100000     16400000    9692.6295   -38311.088    270.95045 -0.010990041   -28618.458    679.61764    2.3791662   -1.0157099 -0.083848066    2.5882676    183.63825     183.7122 0.0087278681 
 4120000     16480000    9942.4429   -38566.552     277.9338 0.00053656088   -28624.109     683.0599    3.3234203   -1.4371054  -0.11098774    3.6225285    183.55825    183.66175 -0.00099923872 
 4140000     16560000    9843.1397   -38490.359    275.15785  -0.10530574   -28647.219    706.28467            0            0            0            0    183.47825    183.47879 -0.0077136866 
 4160000     16640000    9883.7906   -38390.475    276.29422   0.05183871   -28506.684    567.64813    1.2713358  -0.55293855 -0.044001399    1.3870731    183.39825    183.43788 -0.0014661377 
 4180000     16720000    9972.7385   -38541.884    278.78069  0.082830962   -28569.146    627.64069   -0.1447939  0.063626816 0.0051895749  -0.15824215    183.31825    183.31373 0.0027997304 
 4200000     16800000    9872.6429   -38500.368    275.98259 -0.0051773022   -28627.725    688.21621    4.0676961   -1.7920517  -0.14882518    4.4474431    183.23825    183.36532 -0.010608147 
 4220000     16880000    9825.1554   -38621.022    274.65511  0.037336724   -28795.866    852.62493   -1.8004292   0.79630942  0.065641757   -1.9697622    183.15825    183.10197 -0.0033037147 
 4240000     16960000    9838.6327   -38488.771    275.03186   0.10964231   -28650.139    709.75499   0.11916639 -0.053155781 -0.0043739304   0.13055764    183.07825    183.08198 0.0034296391 
 4260000     17040000    9753.7735   -38269.791    272.65969 -0.055601601   -28516.018    579.11005   -2.2424432    1.0082156  0.085258128   -2.4601461    182.99825    182.92796 -0.0071620799 
 4280000     17120000    9806.6803   -38665.757    274.13866 -0.062350806   -28859.076    920.02133       2.9986   -1.3551659  -0.12372103    3.2929293    182.91825    183.01233 -0.0019298242 
 4300000     17200000    9904.3947   -38595.493    276.87019  0.091010308   -28691.099    750.00339   -2.5880997    1.1780572   0.10120522   -2.8454035    182.83825    182.75695 -0.0024806251 
 4320000     17280000    9933.3661   -38445.636    277.68007 -0.065637298    -28512.27    572.40005   -6.1651731    2.8254147   0.23919636   -6.7859813    182.75825    182.56436 -0.0032939863 
 4340000     17360000    9860.3392   -38506.529    275.63865  0.041040491    -28646.19    704.78266   -4.6819815    2.1572432   0.18492168   -5.1583762    182.67825    182.53087  0.014447358 
 4360000     17440000    9879.5537   -38468.451    276.17578  -0.14967183   -28588.897    650.44676    1.6638295  -0.76939153 -0.064115697    1.8342309    182.59825    182.65066 0.0089071486 
 4380000     17520000    9829.5408   -38605.155     274.7777   0.11076488   -28775.614     832.2814   -9.9790368    4.6585277   0.40383265    -11.02026    182.51825    182.20338 -0.0096355408 
 4400000     17600000    9893.0471   -38445.394    276.55298  0.014457649   -28552.346    611.48097    7.3738852   -3.4504348  -0.29578833    8.1466051    182.43825    182.67101 -0.023029809 
 4420000     17680000    9752.5948    -38534.65    272.62674 -0.014374399   -28782.055    840.55736   -8.3531826    3.9414551   0.33624255    -9.242499    182.35825    182.09418 -0.034970645 
 4440000     17760000    9737.1826   -38412.564     272.1959  0.065487867   -28675.381     735.3079   -1.7450283   0.82725257  0.073081201    -1.932566    182.27825    182.22303 -0.0013707602 
 4460000     17840000    9900.7207    -38466.85    276.76749  0.014403482   -28566.129    626.10614    2.0489859  -0.98142747 -0.087793251    2.2735986    182.19825    182.26321  0.019264032 
 4480000     17920000    9842.9615   -38446.655    275.15287  -0.04250751   -28603.693    664.46714    5.7192927   -2.7436329  -0.24341482    6.3479982    182.11825    182.29962 0.0025688638 
 4500000     18000000    9877.6639   -38358.947    276.12295  0.012978869   -28481.283    542.27816   -4.0858102    1.9740941   0.17854306   -4.5412301    182.03825     181.9085  -0.01358664 
 4520000     18080000     9775.753   -38457.317    273.27411  0.016324276   -28681.564    738.68684   -3.4280124    1.6680214    0.1507019   -3.8152687    181.95825    181.84924 -0.015091434 
 4540000     18160000    9824.8844   -38675.877    274.64754 -0.038845985   -28850.993    908.85617    2.0651816   -1.0124534 -0.093663034    2.3019144    181.87825    181.94402 -0.015174439 
 4560000     18240000    9774.9283   -38336.024    273.25105  0.056170473   -28561.096    620.01254            0            0            0            0    181.79825    181.79868 -0.043618918 
 4580000     18320000    9820.3349   -38551.275    274.52036  -0.14389471    -28730.94    790.08148   -4.7775723    2.3625384   0.22534079    -5.334563    181.71825    181.56583 -0.0066275924 
 4600000     18400000    9817.6354   -38588.044     274.4449 -0.019258872   -28770.409    827.09552    2.6518044    -1.321871  -0.12365601    2.9655861    181.63825    181.72298 -0.020389892 
 4620000     18480000    9803.1417   -38584.632    274.03974 -0.011973269    -28781.49     841.2891   -4.1619241    2.0882776    0.1956997   -4.6605593    181.55825    181.42509 -0.015819122 
 4640000     18560000    9800.1773   -38350.347    273.95687  0.039993361    -28550.17    607.73407   -6.9725582    3.5005308   0.34530735   -7.8095788    181.47825    181.25512 0.0039031564 
 4660000     18640000    9783.3162   -38533.051    273.48553   0.10324981   -28749.735    810.52449  -0.79958776   0.40437424  0.039838715  -0.89690927    181.39825    181.37262 -0.014407677 
 4680000     18720000    9906.2741   -38487.526    276.92273 -0.051985225   -28581.252    642.76182   -2.0266398    1.0306273  0.099636557   -2.2758271    181.31825    181.25323 0.0042201709 
 4700000     18800000    9929.5689   -38365.755    277.57392 -0.022188409   -28436.186    496.34605   -3.5735584    1.8253061   0.17577568   -4.0165855    181.23825    181.12349 -0.013343217 
 4720000     18880000    9706.0314   -38421.667    271.32509   0.12448371   -28715.636     774.7197 -0.075183122  0.038658772  0.003877389 -0.084628817    181.15825    181.15583 -0.0074993941 
 4740000     18960000    9716.6272    -38521.91    271.62129 -0.052217079   -28805.283    865.25602    1.2114929  -0.62355471 -0.063542094    1.3640283    181.07825    181.11722 -0.0082751606 
 4760000     19040000    9855.1637   -38297.609    275.49397  0.009346417   -28442.445    506.49088   -1.7409987    0.9006136  0.094313231   -1.9624159    180.99825    180.94218  0.016517939 
 4780000     19120000    9815.1617   -38485.109    274.37575 -0.081868851   -28669.947    730.36099  -0.41073495   0.21423221   0.02168297   -0.4637551    180.91825      180.905 0.0035496648 
 4800000     19200000    9920.2482   -38460.451    277.31337 -0.023611692   -28540.203    600.20647    3.3112166    -1.744982  -0.17948344    3.7471765    180.83825    180.94531 -0.0046307425 
 4820000     19280000    9873.3792   -38457.058    276.00318  0.046934295   -28583.679    644.81354    2.1995082   -1.1656896  -0.12400076    2.4923974    180.75825    180.82946 0.0047436598 
 4840000     19360000    9851.0051   -38582.988    275.37772  -0.03658171   -28731.983    791.30606   0.60272827  -0.32046491 -0.033530836   0.68344966    180.67825    180.69778 -0.035532913 
 4860000     19440000    9760.2693   -38492.614    272.84127  0.042142635   -28732.345    790.82108    4.0697495   -2.1821532  -0.22842135    4.6235083    180.59825    180.73035 -0.023715275 
 4880000     19520000    9845.6236    -38468.33    275.22729 -0.0097792508   -28622.706    681.50807   -3.3966872    1.8266999   0.18357753   -3.8610901    180.51825    180.40793 -0.023060162 
 4900000     19600000    9844.6002   -38619.548    275.19868 -0.020395447   -28774.948     833.2748  -0.31054817     0.168268  0.017665436  -0.35364722    180.43825    180.42815 0.0018943515 
 4920000     19680000    9867.7872   -38617.062    275.84686    0.1001937   -28749.275    804.49234   0.18144814 -0.098376491 -0.010709182   0.20667861    180.35825    180.36415 0.0036869623 
 4940000     19760000    9924.9426    -38613.86    277.44459 -0.0018375722   -28688.918     746.9057  -0.41237378   0.22512863  0.023716494  -0.47042269    180.27825    180.26481 -0.005994695 
 4960000     19840000    9849.3944   -38769.444     275.3327  -0.11737889    -28920.05    978.30613   -5.2846833    2.9042631   0.32550237   -6.0389215    180.19825    180.02571 0.0087202727 
 4980000     19920000    9859.9208    -38620.76    275.62696  0.061641248   -28760.839    820.37783     -1.48595    0.8242353  0.090390834   -1.7016409    180.11825    180.06963 0.0038732977 
 5000000     20000000    9875.0638   -38554.428    276.05027   0.07015222   -28679.364    739.59162    1.0169495  -0.56581539 -0.061873678     1.165402    180.03825    180.07155 0.0031037366 
 5020000     20080000    9982.4959   -38585.988    279.05345  0.021956667   -28603.492    663.67849    8.4928908   -4.7323489   -0.5198311     9.736249    179.95825    180.23643 0.0024430209 
 5040000     20160000    9925.3038   -38501.757    277.45469 -0.045849196   -28576.454     637.5136  -0.70169384   0.39369441  0.043191422  -0.80575122    179.87825    179.85523 -0.018913032 
 5060000     20240000    9764.3868   -38483.336    272.95637   0.06309255   -28718.949    777.13291            0            0            0            0    179.79825    179.79895 -0.014632857 
 5080000     20320000    9746.4656   -38588.734     272.4554 -0.061404533   -28842.268    903.28965   -1.9575457    1.1159414   0.12469514   -2.2567364    179.71825    179.65377 -0.037543459 
 5100000     20400000    9919.7613   -38543.606    277.29975 -0.058260002   -28623.845    684.05171   -6.7826034     3.889118    0.4169939   -7.8296124    179.63825    179.41455 -0.015935449 
 5120000     20480000     9817.614   -38496.706     274.4443   0.18578346   -28679.092    735.40863    3.4969135   -2.0173393  -0.22352634    4.0432692    179.55825    179.67377 -0.0084113931 
 5140000     20560000    9831.9977   -38654.485    274.84639  0.025210001   -28822.488    881.45258   -2.5438473      1.47831   0.16411448   -2.9467768    179.47825    179.39406 -0.0039849273 
 5160000     20640000     9912.807   -38683.647    277.10535 -0.054930915    -28770.84      829.143   -6.0671109    3.5464988   0.41332601   -7.0397675    179.39825    179.19711 -0.021924339 
 5180000     20720000    9701.3927   -38362.352    271.19542  -0.10471289   -28660.959    724.23325   -3.4090884    1.9939001   0.22555018   -3.9558051    179.31825    179.20523 -0.0090514704 
 5200000     20800000    9827.6665   -38454.897    274.72531  0.013870812   -28627.231    686.34883   -6.1084156    3.5959834   0.41233629   -7.1002718    179.23825    179.03538 -0.0011564139 
 5220000     20880000    9776.5699   -38447.699    273.29694 -0.090833467   -28671.129    731.16579   0.18598074  -0.11013963 -0.013011366   0.21653838    179.15825    179.16444 -0.0080917872 
 5240000     20960000    9790.3054   -38589.682    273.68091 0.0098695413   -28799.376    859.59093    4.8324483   -2.8782999  -0.33567509    5.6347001    179.07825    179.23924 -0.0039048686 
 5260000     21040000    9873.7199   -38666.084     276.0127  0.074770717   -28792.364    849.48961   0.73646728  -0.44332003 -0.051761117   0.86115964    178.99825    179.02285  0.017212685 
 5280000     21120000    9868.3092   -38492.791    275.86145 -0.045283318   -28624.482    689.16546   -1.1072847   0.67106409  0.075500238   -1.2969606    178.91825    178.88119 -0.029550391 
 5300000     21200000    9895.2343   -38641.333    276.61412   0.11186836   -28746.098    804.70355   -0.2962565   0.18086614   0.02082915  -0.34772737    178.83825    178.82831  0.013666465 
 5320000     21280000    9832.5627   -38399.876    274.86218 -0.011174291   -28567.314    629.73625   -1.2745133   0.78115881  0.093407314    -1.497771    178.75825    178.71546 -0.00033300739 
 5340000     21360000    9878.9497   -38631.722    276.15889 -0.068485028   -28752.773    812.44204  -0.36704113   0.22586782  0.026993151  -0.43181488    178.67825    178.66591  0.022711823 
 5360000     21440000     9867.791   -38584.067    275.84696  0.054667441   -28716.276    772.32749    9.3967214   -5.8322118  -0.68911175    11.080972    178.59825    178.91485 -0.013905742 
 5380000     21520000    9912.2043   -38459.242     277.0885   0.11914165   -28547.037    603.68808    5.8012321   -3.6304707  -0.42496619    6.8567637    178.51825    178.71416 -0.011239638 
 5400000     21600000    9805.1916    -38622.82    274.09704  0.014896191   -28817.628    874.81193   -2.0861506    1.3151717   0.16049479   -2.4713275    178.43825    178.36764 0.0051814117 
 5420000     21680000    9771.6845   -38670.362    273.16037  0.017573692   -28898.678    957.99672    1.2263663  -0.77808135 -0.095594653    1.4555147    178.35825    178.39984 -0.018299661 
 5440000     21760000    9882.8415   -38666.707    276.26769 -0.016519921   -28783.866    843.00667   -4.7541907    3.0281118   0.36690865   -5.6485761    178.27825    178.11686  -0.01246077 
 5460000     21840000    9947.4883   -38636.933    278.07484  0.035645735   -28689.445    747.47303   -3.6880927    2.3519082   0.28550717   -4.3834934    178.19825    178.07301 -0.029808878 
 5480000     21920000    9881.8914    -38671.57    276.24113 -0.074096258   -28789.679    849.58248  -0.35339585   0.22709962  0.027891609  -0.42099977    178.11825    178.10622 -0.012911347 
 5500000     22000000    9858.1635   -38515.589    275.57783     0.171655   -28657.426    717.91006   -5.1238673    3.3110838   0.40634968   -6.1141159    178.03825    177.86356 -0.015240257 
 5520000     22080000     9815.134   -38564.063    274.37497 -0.011129272   -28748.929     811.7582   -1.5504282    1.0096751   0.12432338   -1.8543807    177.95825    177.90527 0.0035718037 
 5540000     22160000    9948.8691   -38575.444    278.11344  0.075437287   -28626.575    684.01592   -5.9401008    3.8946046   0.49913784   -7.1205253    177.87825    177.67481 -0.018101617 
 5560000     22240000    9869.5397   -38361.765    275.89585   0.10903952   -28492.225    553.50189   -1.0052686   0.66541516  0.085797568   -1.2085957    177.79825    177.76372 0.0063182332 
 5580000     22320000    9898.2409   -38755.714    276.69817 -0.063963581   -28857.473      915.824   -1.2351098   0.82267673   0.10466709    -1.487699    177.71825    177.67574 0.0030246374 
 5600000     22400000     10026.47   -38638.005    280.28271  0.026594452   -28611.535    670.92728    1.0929487  -0.73197426  -0.09336106    1.3187265    177.63825    177.67593  0.023267499 
 5620000     22480000    9865.2909   -38612.538    275.77707  0.080638423   -28747.247    805.78545    4.3603111   -2.9436939  -0.38699439    5.2751694    177.55825    177.70897  -0.01348753 
 5640000     22560000    9823.4088   -38525.747    274.60629 0.0074636213   -28702.338    762.49257  -0.67567942   0.45859136  0.060050014  -0.81881299    177.47825    177.45485 -0.0011184416 
 5660000     22640000    9910.6297       -38575    277.04449 -0.029663084    -28664.37    720.88589    6.9225762   -4.7198025  -0.61746753    8.4011822    177.39825    177.63828 -0.023627118 
 5680000     22720000     9830.384   -38577.546    274.80127 -0.081898399   -28747.162    807.14347   -9.0229727    6.1953614   0.79517508   -10.974008    177.31825    177.00471 -0.0067201397 
 5700000     22800000    9871.0965   -38523.066    275.93936 -0.013188945    -28651.97    712.64138   -2.3065362    1.5916361   0.20326187   -2.8097563    177.23825    177.15797 -0.0085403365 
 5720000     22880000    9867.6884    -38573.45    275.84409  0.031241275   -28705.762     763.6671   -2.4472803    1.6982746   0.22213554   -2.9870824    177.15825     177.0729 0.0085983924 
 5740000     22960000    9812.6935   -38787.794    274.30675  -0.02865278   -28975.101    1030.2797    8.2496141   -5.7468275  -0.76649163    10.083138    177.07825    177.36634 -0.0046984794 
 5760000     23040000    9775.6634    -38507.62     273.2716 -0.066932813   -28731.957    794.85133   0.62750218  -0.43906727 -0.058471514   0.76808721    176.99825    177.02019 -0.017940096 
 5780000     23120000    9923.6308   -38418.833    277.40792   0.10841643   -28495.203    554.23956    7.3779987   -5.2185864    -0.683544    9.0628771    176.91825    177.17719 0.0029292189 
 5800000     23200000    9910.3537    -38615.15    277.03677  0.020558798   -28704.796    762.57706    7.4700921   -5.3112111  -0.69897442    9.1923776    176.83825    177.10089 -0.030162407 
 5820000     23280000    9792.9771   -38604.249    273.75559 -0.075081023   -28811.272    871.86635   -1.3428046   0.95682532   0.12537431   -1.6535893    176.75825      176.711  0.020137875 
 5840000     23360000    9975.2335   -38506.883    278.85044  -0.08201047   -28531.649     592.1907    0.3693159  -0.26541471 -0.035766925   0.45620004    176.67825    176.69128  0.024834917 
 5860000     23440000     9875.118   -38486.894    276.05178  0.035015339   -28611.776    671.49483    3.3878097    -2.453437  -0.33193599    4.1960445    176.59825    176.71814 -0.0092668431 
 5880000     23520000    9931.6588   -38420.509    277.63234 -0.023206832    -28488.85    548.20538    4.8904567   -3.5752019  -0.49480162    6.0781135    176.51825    176.69191 -0.0060721952 
 5900000     23600000    9703.1225   -38512.005    271.24377   0.12585518   -28808.882    865.94436  -0.24725761    0.1816579  0.024643267  -0.30780384    176.43825    176.42946  0.019268803 
 5920000     23680000    9853.0968   -38471.265     275.4362 -0.076199191   -28618.168     679.7831    3.3005995   -2.4354288  -0.32849009    4.1149941    176.35825    176.47582 0.0017890383 
 5940000     23760000    9733.3052   -38550.897    272.08751  0.015125202   -28817.591     877.7761   -2.9378876    2.1843681   0.30126356   -3.6733373    176.27825     176.1733  0.015998342 
 5960000     23840000    9834.6324   -38418.527    274.92004  0.014957647   -28583.894    645.24967    5.6411273   -4.2160272  -0.57441595     7.065915    176.19825    176.40013 -0.014101331 
 5980000     23920000    9946.2949    -38513.53    278.04148 -0.081303663   -28567.235    628.80508    4.2524048   -3.1844064  -0.44346444     5.331046    176.11825    176.27057 -0.010276156 
 6000000     24000000      9787.49   -38429.269     273.6022  0.039411219   -28641.779    705.46272    1.9945101   -1.5033935  -0.21432024    2.5068298    176.03825    176.10987 -0.0050413534 
 6020000     24080000    9774.8231   -38448.954    273.24811 -0.086585688   -28674.131    735.96312    2.1492494   -1.6286643  -0.23559318    2.7069032    175.95825    176.03559 0.0040257046 
 6040000     24160000     9735.506    -38644.74    272.14903 -0.020138119   -28909.234    968.22725   -5.4764643    4.1755799    0.5984354   -6.9126878    175.87825    175.68074 -0.021874591 
 6060000     24240000    9729.4385   -38673.657    271.97942  -0.10252585   -28944.218    1003.9349   0.76490911  -0.58577137 -0.084555435   0.96714201    175.79825    175.82588 0.0074323441 
 6080000     24320000    9945.1533   -38583.078    278.00957 0.0095850375   -28637.925    696.59468  -0.49167974   0.37841832  0.055967881  -0.62296212    175.71825    175.70045  0.028328621 
 6100000     24400000    9640.4057   -38450.399    269.49057 -0.0087875311   -28809.993    869.67079   -6.5222084    5.0474151    0.7480788   -8.2810159    175.63825    175.40165 -0.022515934 
 6120000     24480000    9829.8579    -38467.13    274.78657 -0.028224859   -28637.272    697.51464    3.2961884   -2.5690071  -0.37505328    4.1958694    175.55825    175.67813 -0.018072267 
 6140000     24560000    9964.8889   -38463.347    278.56126 -0.072448263   -28498.458    561.10308    2.4817009   -1.9401702  -0.29206465    3.1636058    175.47825    175.56864 0.0021290434 
 6160000     24640000    9763.4483   -38603.084    272.93014  0.074535791   -28839.636    899.41162    2.0882497   -1.6445024  -0.24528405    2.6693331    175.39825    175.47452 -0.010019952 
 6180000     24720000    9715.0194   -38540.817    271.57634  0.085425333   -28825.798    885.67504   0.82013997  -0.65030808 -0.098710003      1.05132    175.31825    175.34829  0.015458358 
 6200000     24800000    9932.8357   -38631.946    277.66524   0.05707108    -28699.11    759.83568    2.1921159   -1.7433958   -0.2692512    2.8137693    175.23825    175.31864 -0.020153945 
 6220000     24880000    9745.3408   -38596.767    272.42395 -0.067337535   -28851.426    912.36134   -2.0050153    1.6004712   0.24796717   -2.5774177    175.15825    175.08461 -0.010810032 
 6240000     24960000    9861.1015   -38558.769    275.65996 -0.081754808   -28697.668    760.53404    3.9172125   -3.1333038  -0.48572184      5.03965    175.07825    175.22224 0.0025062205 
 6260000     25040000    9859.5415   -38697.971    275.61635   0.11606165    -28838.43    896.61529   -2.3986082    1.9405519   0.30485037    -3.100322    174.99825    174.90967 -0.0066923213 
 6280000     25120000    9688.7002    -38458.07    270.84061 -0.025441711    -28769.37    834.65646 -0.065357514  0.053197231 0.0085194202  -0.08470024    174.91825    174.91583 -0.018940262 
 6300000     25200000    9913.5684   -38525.457    277.12663  -0.12680171   -28611.888    674.58243   -4.9270282    4.0211197   0.62681152   -6.3904541    174.83825    174.65567 -0.025322358 
 6320000     25280000    9817.4625   -38623.798    274.44006   0.10860838   -28806.336    866.38668    2.7168045   -2.2303045  -0.35259741    3.5326491    174.75825    174.85918 -0.017077187 
 6340000     25360000    9911.9121   -38502.338    277.08034  -0.10741099   -28590.426    653.43094   -1.1877508   0.97990061   0.15711437   -1.5477862    174.67825    174.63403  -0.01009733 
 6360000     25440000    9903.4886    -38464.44    276.84486   0.15543052   -28560.951    619.77306    0.3945361  -0.32776353 -0.053140134   0.51566612    174.59825    174.61298 -0.011343305 
 6380000     25520000    9811.8869   -38521.823     274.2842   0.15413132   -28709.936     770.6522    4.3584671   -3.6289428   -0.5961759    5.7027088    174.51825    174.68118  0.030418564 
 6400000     25600000    9776.6341    -38533.24    273.29874 -0.083181347   -28756.606    819.11932  -0.30271051   0.25311339  0.041615297  -0.39677686    174.43825    174.42691 -0.006078696 
 6420000     25680000    9853.5689   -38579.745    275.44939  0.067496321   -28726.176    784.73845   -1.6819433    1.4124357   0.23230853   -2.2085912    174.35825    174.29515 0.0005220886 
 6440000     25760000    9939.9693   -38673.126    277.86465 -0.049989131   -28733.157    794.76411    2.1560183   -1.8115703  -0.30477199    2.8325056    174.27825    174.35918 0.0035123822 
 6460000     25840000    9791.8718   -38452.438     273.7247  -0.16428717   -28660.566    721.40773   0.93967294  -0.80120381  -0.13366654    1.2420868    174.19825    174.23374   0.01829797 
 6480000     25920000    9904.2874   -38560.882    276.86719  0.092379042   -28656.595    716.34327   -2.1920072    1.8667439   0.31386024   -2.8962279    174.11825     174.0355 -0.021876489 
 6500000     26000000    9794.4488    -38545.95    273.79673 -0.082513756   -28751.501    812.58355  -0.85466034    0.7326311   0.12539991   -1.1326596    174.03825    174.00589 -0.0071369543 
 6520000     26080000    9948.8626   -38683.224    278.11326  -0.12399764   -28734.361    795.16968    1.4761967   -1.2680842  -0.21913853    1.9583708    173.95825     174.0142  0.030711133 
 6540000     26160000    9788.7261   -38554.362    273.63676 -0.060108977   -28765.635    825.90475   0.15296372   -0.1316905 -0.022769354   0.20312245    173.87825    173.88405 -0.010985481 
 6560000     26240000    9708.9223   -38580.122     271.4059  0.025772653     -28871.2    932.20438    3.6512923   -3.1739321  -0.54931901    4.8690381    173.79825    173.93736 -0.018242229 
 6580000     26320000    9947.0917   -38529.904    278.06376  0.059258765   -28582.812    643.59394    1.6932601   -1.4846536  -0.25763607    2.2666501    173.71825    173.78301 -0.014766306 
 6600000     26400000    9851.8013   -38630.923    275.39998   0.12047301   -28779.121    837.43764    6.0814043    -5.330925  -0.92437138     8.139822    173.63825    173.87082 0.0014757112 
 6620000     26480000    9792.0025   -38468.382    273.72835  0.024138233    -28676.38    736.66458    1.5680317    -1.385316  -0.24021328    2.1060689    173.55825    173.61842 -0.0016405872 
 6640000     26560000    9823.0002   -38595.746    274.59487  -0.14317032   -28772.746    833.44892    1.4579348   -1.2958729  -0.22517218    1.9635588    173.47825    173.53435 -0.016885131 
 6660000     26640000    9959.3714   -38515.485    278.40703 0.0075312058   -28556.114    617.15049    1.9124935   -1.7132855  -0.29825094    2.5849433    173.39825    173.47211  0.018766583 
 6680000     26720000    9811.8127    -38624.16    274.28213 -0.029731252   -28812.348    870.60719    5.0211604    -4.495609  -0.78744459    6.7854713    173.31825    173.51212  0.012869957 
 6700000     26800000    9817.3731   -38643.705    274.43757  0.027700772   -28826.332    886.11872   -2.8532207    2.5689698   0.46320645    -3.867174    173.23825    173.12776  0.009436889 
 6720000     26880000    9789.3739   -38443.571    273.65487  0.013940587   -28654.197    714.09967  -0.37373698   0.33864205   0.06158538  -0.50808516    173.15825    173.14373 -0.0014519533 
 6740000     26960000    9843.9868   -38481.296    275.18153   0.19720147   -28637.309    695.73756    2.4545467   -2.2344196  -0.40527402    3.3439015    173.07825    173.17379 -0.0012963947 
 6760000     27040000    9914.9582     -38474.2    277.16549  0.011851259   -28559.242    619.69574  -0.61951983   0.56841895   0.10473622  -0.84727481    172.99825    172.97404 0.0012803187 
 6780000     27120000    9907.2936   -38525.795    276.95123  0.034879758   -28618.502    677.44062   -0.1072973  0.098776362  0.018323379  -0.14698716    172.91825    172.91405 -0.0094692906 
 6800000     27200000    9890.6751   -38696.442    276.48667 -0.091983799   -28805.767    863.76946   -2.8008284    2.5977003   0.48691511   -3.8509444    172.83825    172.72822 -0.041597755 
 6820000     27280000    9919.9449   -38361.818    277.30489 -0.053232903   -28441.873    503.04119   -3.7959188    3.5332408     0.659504   -5.2275937    172.75825    172.60889  0.011578756 
 6840000     27360000    9770.8268   -38611.937     273.1364 -0.075844223    -28841.11    901.21257   0.16452758  -0.15356887 -0.028304576   0.22683446    172.67825    172.68473 0.0084350278 
 6860000     27440000    9782.5105   -38741.207    273.46301  0.036986268   -28958.697     1016.725    2.5740344   -2.4102703  -0.44661466    3.5545071    172.59825    172.69981 0.0059913086 
 6880000     27520000    9809.2338   -38606.005    274.21004 -0.082401638   -28796.771    859.53479  -0.70415403   0.66488715    0.1247328  -0.97645588    172.51825    172.49035  -0.01788076 
 6900000     27600000    9824.2778   -38585.717    274.63058  0.087060051   -28761.439    818.00285   -3.6294489    3.4428744    0.6472443   -5.0443244    172.43825    172.29413 -0.0087669571 
 6920000     27680000    10001.119   -38619.023    279.57406 -0.061007883   -28617.903    675.35095   -2.4188536    2.3119546   0.43525338   -3.3742306    172.35825    172.26184 -0.020657601 
 6940000     27760000     9761.008   -38549.923    272.86192   0.02397593   -28788.915    844.97835   -8.1581592    7.7969417     1.469265   -11.380097    172.27825     171.9531  0.007859464 
 6960000     27840000    9826.6451   -38584.604    274.69676  0.010270846   -28757.959    818.99975    2.4144713   -2.3199822  -0.44761488    3.3782167    172.19825    172.29477 -0.0033687353 
 6980000     27920000    9908.3222   -38665.486    276.97998   0.18185686   -28757.164    815.28248   -1.0129175   0.98310173   0.19097591   -1.4244166    172.11825    172.07755  0.018827773 
 7000000     28000000    9879.8082    -38753.19    276.18289 -0.058877634   -28873.382    933.52538   0.45329036  -0.44172657 -0.085152029   0.63862773    172.03825     172.0565 -0.012102767 
 7020000     28080000    9772.2406   -38536.128    273.17592   0.02081032   -28763.887    822.74525    1.1643874   -1.1415081  -0.22106947    1.6455122    171.95825    172.00526 0.0049917843 
 7040000     28160000    9823.2144   -38594.598    274.60085  -0.10096841   -28771.384    830.80907    5.5195844   -5.4346669   -1.0700656      7.81962    171.87825    172.10167  -0.00433909 
 7060000     28240000    9823.3442   -38732.659    274.60448 0.0077525111   -28909.314    969.63351    1.3360946   -1.3234469  -0.25978947    1.8984602    171.79825    171.85249  0.013913522 
 7080000     28320000    9779.4947   -38608.135     273.3787 -0.081182155   -28828.641      888.444   -1.7272454    1.7168146   0.34306021   -2.4593737    171.71825    171.64798 -0.019550004 
 7100000     28400000    9887.9888   -38453.171    276.41158  -0.14113738   -28565.183    627.77914    1.6323336   -1.6358887  -0.32410822    2.3336004    171.63825    171.70492  0.033382692 
 7120000     28480000    9861.0465   -38712.224    275.65842 -0.028408059   -28851.178    912.15615    0.3480871  -0.35043979 -0.069367511   0.49878304    171.55825     171.5725 -0.0051527353 
 7140000     28560000    9900.4459   -38707.912    276.75981  -0.15576326   -28807.466    870.03055   -4.4317204    4.4762868   0.89336485   -6.3620272    171.47825    171.29648 -0.035481265 
 7160000     28640000    9851.0886   -38704.643    275.38006  0.081103773   -28853.555    911.61829  -0.60895769   0.61857731   0.12562084  -0.87706781    171.39825    171.37319 0.0030639524 
 7180000     28720000     9816.813   -38509.842    274.42191  0.019513858   -28693.029    751.62135  0.061691787 -0.063108471  -0.01287627  0.089187185    171.31825     171.3208 -0.006531667 
 7200000     28800000    9882.1841   -38522.276    276.24931  0.015029529   -28640.092    698.98735    1.9902017   -2.0488442  -0.41776737    2.8867274    171.23825    171.32073  0.012551727 
 7220000     28880000    9868.8329   -38568.593    275.87609 0.0013926447    -28699.76     760.8866   -2.3225511     2.396305   0.49297705   -3.3733585    171.15825    171.06187 -0.027919148 
 7240000     28960000    9788.4384   -38736.929    273.62872 -0.062735192    -28948.49    1009.1141    3.6634386   -3.8000801  -0.77764316     5.335365    171.07825    171.23069 -0.027083397 
 7260000     29040000    9830.9249   -38602.183     274.8164  0.029898846   -28771.258    831.45036   -1.4871837    1.5553923   0.32274142   -2.1760337    170.99825    170.93608 -0.0094735298 
 7280000     29120000    9783.6771   -38495.301    273.49562 -0.0013550079   -28711.624    769.73964    4.7204391   -4.9762085   -1.0188826    6.9342136    170.91825    171.11637 0.00052263901 
 7300000     29200000     9777.727   -38603.871    273.32929 -0.059840005   -28826.144    887.38907  -0.29084687   0.30771977  0.064077047  -0.42823968    170.83825    170.82601 -0.040333716 
 7320000     29280000    9862.2007   -38583.188    275.69069   0.10506706   -28720.987    778.95077    -6.055038    6.4021354    1.3491831   -8.9146575    170.75825    170.50355 0.0069678134 
 7340000     29360000    9795.8335   -38751.586    273.83544  0.018544185   -28955.753     1013.106    1.5650829   -1.6728435  -0.35020135    2.3174406    170.67825    170.74446 -0.0037041552 
 7360000     29440000    9830.3914   -38588.161    274.80148 -0.059791901    -28757.77    819.08506   -2.1492159    2.2989642   0.48864168   -3.1848291    170.59825    170.50725  0.019360011 
 7380000     29520000     9895.184   -38657.879    276.61271  0.024610571   -28762.695    820.34042   -4.9001691    5.2635551    1.1235761   -7.2786738    170.51825    170.31029 0.0026592025 
 7400000     29600000    9877.1679   -38591.722    276.10909  0.011526145   -28714.554    774.59647   -2.0064418    2.1682463   0.46020911   -2.9897982    170.43825    170.35283 -0.0026441626 
 7420000     29680000    9818.4146   -38455.463    274.46668  -0.13087743   -28637.048    698.41222   -2.3601986       2.5592   0.55270278   -3.5249855    170.35825    170.25754 -0.0010296525 
 7440000     29760000    9863.7601   -38555.037    275.73428  -0.03464298   -28691.277    754.30188    5.1483045   -5.6157564   -1.2091358    7.7138685    170.27825    170.49865  0.035001416 
 7460000     29840000    9861.3766   -38517.802    275.66765 -0.087375768   -28656.426    715.10318  -0.38904054   0.42594622  0.092305182  -0.58421141    170.19825    170.18156 -0.021221919 
 7480000     29920000     9712.747   -38439.113    271.51282  0.066571648   -28726.366    788.89634   -2.3250056    2.5680518   0.56573303   -3.5100705    170.11825    170.01796  0.025175575 
 7500000     30000000    9768.7039   -38585.142    273.07705 -0.054181645   -28816.438     876.7985   0.36967923  -0.41106216 -0.090139142   0.56014275    170.03825    170.05425 -0.0011546605 
 7520000     30080000    9674.4807   -38664.969    270.44311 -0.014590289   -28990.489    1050.0302      -1.0723    1.1990284   0.26394527   -1.6300809    169.95825    169.91168  0.021743191 
 7540000     30160000    9746.6468   -38632.283    272.46046  0.034305557   -28885.636    945.17099    1.6687337   -1.8770237  -0.42241945    2.5468271    169.87825    169.95102 -0.0096122714 
 7560000     30240000    9817.0743   -38714.789    274.42921  -0.05065796   -28897.715     954.8509  -0.65621238   0.73883884   0.16484386   -1.0018338    169.79825    169.76963 -0.00056640993 
 7580000     30320000    9820.6476   -38626.799     274.5291 -0.055686766   -28806.152     867.0411   0.60323031  -0.67845041  -0.15199533    0.9204805    169.71825    169.74455 -0.013391803 
 7600000     30400000    9568.2152   -38584.328    267.47254 -0.066532741   -29016.112    1077.0324    3.9098108   -4.4373544   -1.0031413    5.9985854    169.63825    169.80964 -0.013658722 
 7620000     30480000     9818.221   -38640.978    274.46127  -0.08170009   -28822.757    883.32083    1.9681194   -2.2387901  -0.50940343    3.0240977    169.55825    169.64465  0.028714683 
 7640000     30560000    9917.4443    -38733.48    277.23498 -0.039704969   -28816.035    874.57981   0.39048555  -0.44659141  -0.10223224   0.60197532    169.47825    169.49545 -0.00073724195 
 7660000     30640000    9763.7623   -38463.537    272.93891 -0.045681574   -28699.775    761.65508     1.265429   -1.4497299  -0.33253595     1.952846    169.39825    169.45405  0.011049796 
 7680000     30720000    9901.7514   -38619.372     276.7963  0.085782989   -28717.621    777.18421   -1.8591268    2.1356624   0.49559045   -2.8745463    169.31825    169.23612  0.011694299 
 7700000     30800000    9716.5309   -38403.453    271.61859  0.013123271   -28686.922    746.72268   -2.5389864     2.937902   0.68111237    -3.942288    169.23825    169.12561 -0.008157771 
 7720000     30880000    9763.2866   -38417.161    272.92562   0.03132962   -28653.874    711.94601    7.5123787   -8.7258382   -2.0471116    11.694732    169.15825    169.49238 -0.012661155 
 7740000     30960000    9977.9889   -38672.382    278.92746   0.05495778   -28694.393    753.23037            0            0            0            0    169.07825    169.07917 -0.013737187 
 7760000     31040000    9925.7908   -38475.048    277.46831 -0.023674368   -28549.257    609.23237   -4.6993514    5.4989547      1.28652   -7.3469409    168.99825    168.78834  0.010485311 
 7780000     31120000    9789.1726   -38472.862    273.64924 -0.029453392   -28683.689    742.50601    4.3545232   -5.1179654   -1.2059586    6.8271355    168.91825    169.11331 -0.002684909 
 7800000     31200000    9893.5464   -38576.813    276.56693 -0.031843396   -28683.267    743.40826    1.9554199   -2.2894906  -0.54429743    3.0596885    168.83825    168.92567 -0.0090633457 
 7820000     31280000    9863.8912   -38345.532    275.73795  0.042825211    -28481.64    542.26822    2.4516094   -2.8936433  -0.68732981    3.8543459    168.75825    168.86837 0.0090456284 
 7840000     31360000    9830.2232   -38455.622    274.79678 -0.081707078   -28625.399    684.54922    3.7525872   -4.4510032   -1.0541161    5.9164602    168.67825    168.84729 -0.0068947535 
 7860000     31440000    9732.8127   -38465.392    272.07374 -0.0027875209   -28732.579    791.98259   -4.0782841    4.8517351    1.1612287    -6.443616    168.59825    168.41415 -0.011052189 
 7880000     31520000    9966.1273   -38436.688    278.59588     0.148022    -28470.56    529.20633   -2.5336601    3.0423756     0.727857   -4.0255755    168.51825    168.40323 -0.023141233 
 7900000     31600000    9719.0332   -38444.778    271.68854   0.10086169   -28725.744    784.77457   0.65325937  -0.78105438  -0.18504017    1.0349075    168.43825    168.46782 0.0016313412 
 7920000     31680000    9812.1648   -38573.585    274.29197  0.052996989    -28761.42     821.0654   -1.5093872    1.8124062   0.43589508   -2.3985559    168.35825    168.28972 0.0039619238 
 7940000     31760000    9931.3474   -38603.328    277.62363 -0.072916495    -28671.98    732.42315  -0.26035931   0.31399984  0.076380766  -0.41499024    168.27825    168.26639   0.02461709 
 7960000     31840000    9807.4864   -38632.903    274.16119 -0.0093583391   -28825.417     884.8336   -3.1956021    3.8788086   0.92930293   -5.1108348    168.19825    168.05223  -0.01206479 
 7980000     31920000    9900.4565   -38597.205     276.7601 -0.053305608   -28696.748    752.38978   -8.9652832    10.899032    2.6452339   -14.358358    168.11825    167.70801 -0.010246457 
 8000000     32000000     9794.532   -38605.279    273.79906 -0.061668009   -28810.747    870.63773   -2.0641069    2.5287742   0.61721718   -3.3220767    168.03825    167.94333  0.026867561 
 8020000     32080000    9798.6253   -38529.918    273.91349 -0.035853399   -28731.293    791.51406   -2.2164411    2.7226073   0.67278471   -3.5746106    167.95825    167.85612 0.0058208774 
 8040000     32160000    9907.2032   -38632.059     276.9487   -0.0111525   -28724.856    783.37127    2.5779629   -3.1773715  -0.78986286    4.1671892    167.87825    167.99731 0.0080936357 
 8060000     32240000    9856.5211   -38549.726    275.53192  0.027013867   -28693.205    754.47415  -0.21616744   0.26758078  0.066366348  -0.35033174    167.79825    167.78824  0.016497873 
 8080000     32320000    9973.4668    -38599.99    278.80105 -0.015988722   -28626.524    689.31262   -1.0574797      1.31124   0.32650327   -1.7158724    167.71825    167.66922 -0.012355818 
 8100000     32400000    9743.9554   -38450.565    272.38523 -0.054307392    -28706.61    765.87778   -4.8921487    6.0891655     1.535297   -7.9604141    167.63825    167.41081 -0.017077499 
[...]
38080000   1.5232e+08    9843.6844   -38883.589    275.17308   0.48088143   -29039.904    3716.3075   -331.57819   -132.37203    67.652339    363.37761    47.718246    58.100467    4609.9142 
38100000    1.524e+08    9750.7054   -38805.186    272.57392   0.45080641   -29054.481    3848.9694   -323.53038   -129.97326    66.332798    354.91548    47.638246    57.778692    4638.7807 
38120000   1.5248e+08    9843.8517   -38904.959    275.17775   0.52291138   -29061.107     3783.906   -331.99582   -134.59339    68.296118    364.69298    47.558246    57.978049    4667.6493 
38140000   1.5256e+08     9728.976   -38963.675    271.96649   0.51044787   -29234.699    4048.6244   -327.39274   -129.68181    66.400724    358.34681    47.478246     57.71673    4696.4527 
38160000   1.5264e+08    9857.9722   -38972.167    275.57249   0.53774673   -29114.194    3932.9623   -328.75923   -131.44745    69.184084    360.75961    47.398246    57.705667    4725.2808 
38180000   1.5272e+08    9761.5058   -38856.825    272.87584    0.5913317    -29095.32    3970.2401   -325.93869   -131.38207    67.800624     357.9025    47.318246    57.544035    4754.2173 
38200000    1.528e+08    9877.5842    -38872.14    276.12072   0.39123408   -28994.556     3842.879   -331.73584   -132.85557    67.375353    363.64641    47.238246    57.628147    4783.3038 
38220000   1.5288e+08      9867.71   -38690.846     275.8447   0.30094859   -28823.136    3680.1508   -333.23835   -133.86624    70.158151    365.91001    47.158246    57.612821    4812.4862 
38240000   1.5296e+08    9854.3523   -38939.692    275.47129   0.43573724    -29085.34    3884.7176   -339.55142   -138.60178    72.034253    373.75735    47.078246    57.757031    4841.7197 
38260000   1.5304e+08    9948.8759   -38906.579    278.11363    0.5291745   -28957.704     3817.098    -337.0731   -137.05085    71.328921    370.79513    46.998246    57.592396    4871.1547 
38280000   1.5312e+08    9839.1833   -38831.651    275.04725   0.51321846   -28992.467    3906.2949    -335.2445   -136.01994     69.47975    368.39888    46.918246    57.443932    4900.7715 
38300000    1.532e+08    9781.3044   -38928.641    273.42929   0.52018982   -29147.337    4024.5992   -339.80075    -140.1219    72.420479    374.62438    46.838246    57.541803    4930.5028 
38320000   1.5328e+08     9859.935   -38937.298    275.62735   0.47209148   -29077.363    3997.1879   -339.30418   -138.94517    70.975105    373.45756    46.758246    57.428466    4960.4091 
38340000   1.5336e+08    9751.3917   -38803.733     272.5931   0.43913362   -29052.342    3992.3077   -340.15722   -139.76399    70.809323    374.50617    46.678246    57.378426    4990.4341 
38360000   1.5344e+08    9834.3202   -38623.002    274.91131   0.44569448   -28788.682     3745.527   -342.69523   -136.99271    71.493978    375.92341    46.598246    57.338919    5020.4549 
38380000   1.5352e+08     9848.745   -38684.063    275.31454   0.41691442   -28835.318    3872.5106   -337.39268   -136.58475    71.580466    370.96223    46.518246    57.117171    5050.4096 
38400000    1.536e+08    9813.3093    -38762.32    274.32397   0.44534247    -28949.01    3938.0528   -344.20686   -138.89137     72.98341    378.27999    46.438246    57.246249    5080.3611 
38420000   1.5368e+08    9856.4945   -38711.669    275.53118   0.61194166   -28855.175     3914.388   -340.33629   -138.73949    70.625585    374.25314    46.358246    57.051196    5110.5002 
38440000   1.5376e+08    9769.8553   -38611.644    273.10924   0.46567691   -28841.789    3939.7326   -340.47039   -137.18062    70.469695    373.77077    46.278246    56.957414    5140.7839 
38460000   1.5384e+08    9677.4323    -38907.38    270.52562   0.60946466   -29229.947    4271.5221   -347.46996   -139.65738    72.151668    381.37307    46.198246    57.094623    5171.2086 
38480000   1.5392e+08    9818.1775   -38954.237    274.46005    0.4142695   -29136.059    4122.6462   -354.08034   -144.71802    72.059548    389.24127    46.118246    57.239429    5201.6961 
38500000     1.54e+08    9888.6108   -38728.072    276.42896    0.5158489   -28839.461    3946.1976   -346.73661   -140.17789    73.309294    381.11727    46.038246    56.927314    5232.3899 
38520000   1.5408e+08    9731.4335    -38724.36    272.03519   0.40619745   -28992.926    4144.9598   -345.69249   -140.76876    70.701147    379.89182    45.958246    56.812302    5263.0648 
38540000   1.5416e+08    9861.3537   -38760.146    275.66701   0.53274926   -28898.792    4052.7024   -347.64563   -141.74653    73.345341    382.52987    45.878246    56.807674    5293.8774 
38560000   1.5424e+08    9845.4155   -38653.157    275.22147   0.55868055   -28807.742     3955.711   -351.24159   -141.30308    74.362292    385.83283    45.798246    56.822045    5324.8438 
38580000   1.5432e+08    9982.1747   -38558.338    279.04447   0.49883789   -28576.163    3766.6211   -350.32579   -142.49442    73.021504    385.18172    45.718246    56.723442    5355.7245 
38600000    1.544e+08    10013.008   -38739.125    279.90639   0.60442538   -28726.118    3875.1855   -356.30024   -143.47754    74.257593    391.21587    45.638246    56.815846     5386.701 
38620000   1.5448e+08    9728.8978   -38546.867     271.9643    0.4839304   -28817.969    4057.6436   -351.01446   -142.16794    74.126134    385.89838    45.558246    56.583918    5417.7059 
38640000   1.5456e+08    9946.3958   -38533.077     278.0443   0.55741153   -28586.681    3907.6919   -347.41633   -140.41039    70.287631    381.25259    45.478246    56.371181    5448.5027 
38660000   1.5464e+08    9849.4988   -38760.478    275.33562    0.5330546   -28910.979    4248.0203   -348.12704   -140.09125    73.112677     382.3133    45.398246    56.321487    5478.9883 
38680000   1.5472e+08    9894.1174   -38586.438     276.5829   0.57353294   -28692.321    4009.6542   -352.23609   -144.35629    70.609215    387.16232    45.318246     56.38003    5509.6579 
38700000    1.548e+08    9832.6117   -38613.509    274.86355   0.47745695   -28780.898    4112.5223   -353.23233    -144.6007    73.372432    388.67203    45.238246    56.343165    5540.4463 
38720000   1.5488e+08    9766.1371   -38539.033     273.0053   0.43023047   -28772.896    4159.3839   -352.02628   -142.85324    71.530088     386.5826    45.158246    56.203467    5571.2813 
38740000   1.5496e+08    9801.5137   -38426.632    273.99423   0.46595355   -28625.118    4015.7878   -354.46653   -143.04877    72.344189    389.02847    45.078246    56.193349    5602.3542 
38760000   1.5504e+08    9829.9517   -38471.572    274.78919   0.61671066   -28641.621    4039.6716   -355.14679   -146.58613    72.266037    390.94644    44.998246    56.168148    5633.4784 
38780000   1.5512e+08    9794.0963   -38380.913    273.78688   0.55815611   -28586.817    4049.5431   -353.47255   -142.92267    71.619063    387.94204    44.918246    56.002308    5664.7135 
38800000    1.552e+08    9860.7243   -38456.461    275.64942   0.48178637   -28595.736    4007.3788   -360.32322   -145.11548    74.501394    395.52722    44.838246    56.139027     5696.073 
38820000   1.5528e+08    9784.8481   -38492.825    273.52835   0.56497493   -28707.977    4200.6347   -355.93904   -144.41028    73.122854    391.01647    44.758246    55.930149      5727.56 
38840000   1.5536e+08    9857.7669   -38531.742    275.56675   0.45043508   -28673.975     4147.465   -360.08973   -146.24423    73.668391    395.57429    44.678246    55.980372    5759.2517 
38860000   1.5544e+08     9879.053   -38365.041    276.16178   0.41899662   -28485.988    3973.1698   -361.73973   -146.66411     73.91218    397.27699    44.598246    55.949021    5790.9377 
38880000   1.5552e+08    9898.4058   -38480.512    276.70278   0.38495783   -28582.106    4032.5971   -367.45315   -147.79658    76.161153    403.31894    44.518246    56.041648    5822.8024 
38900000    1.556e+08    9751.4024   -38310.765     272.5934   0.50394838   -28559.363    4099.4062    -363.2847   -145.35951    73.985377    398.21978    44.438246    55.815958    5854.7335 
38920000   1.5568e+08    9694.6862   -38444.087    271.00794   0.47624287     -28749.4    4320.5631   -361.97405   -147.33419    75.306732     397.9996    44.358246    55.729667    5886.7526 
38940000   1.5576e+08    9828.1977    -38460.87    274.74016   0.60984456   -28632.673    4189.9249   -365.72608   -148.97104    75.764032    402.10462    44.278246    55.766953    5918.9351 
38960000   1.5584e+08    9682.1741    -38539.76    270.65818   0.56212302   -28857.586     4421.138   -368.08789   -149.05564    76.106265    404.34941    44.198246     55.75109     5951.285 
38980000   1.5592e+08     9907.175   -38357.665    276.94791   0.45014906    -28450.49    4035.8854   -368.82496   -150.55869    74.745969    405.32299    44.118246    55.698906    5983.7248 
39000000     1.56e+08    9809.9117   -38379.295    274.22899    0.4874141   -28569.384    4163.4828   -370.18786   -151.21192      77.7578    407.37007    44.038246    55.677394    6016.1726 
39020000   1.5608e+08    9911.8226   -38360.515    277.07783   0.49275343   -28448.692    4093.3185   -369.72994   -149.52143    74.496956     405.7175    43.958246    55.550178    6048.7352 
39040000   1.5616e+08    9806.8509   -38385.752    274.14342   0.50979582   -28578.901    4165.8046   -376.86654   -151.57719    77.838618    413.59749    43.878246    55.695321    6081.4163 
39060000   1.5624e+08    9925.5873   -38359.828    277.46261   0.49025808    -28434.24    4033.8216   -378.56785   -153.07476    75.585429    415.28142    43.798246    55.663433    6114.2461 
39080000   1.5632e+08    9821.8267   -38275.058    274.56206   0.55892434   -28453.232    4080.1337   -377.90953   -154.72773    77.596857    415.66519    43.718246    55.594398    6147.3163 
39100000    1.564e+08    9825.0522   -38247.224    274.65223   0.49557768   -28422.171    4196.5704   -369.78859   -149.51821    76.272963    406.09957    43.638246    55.241095    6180.3687 
39120000   1.5648e+08    9779.9039   -38360.642    273.39014   0.51403946   -28580.738    4274.2326   -379.05946   -152.56134    76.325204    415.67604    43.558246    55.434708    6213.4599 
39140000   1.5656e+08    9861.2358    -38201.32    275.66372   0.64317391   -28340.084     4077.498   -377.43256   -153.46747    77.346468    414.71686    43.478246    55.327303    6246.6424 
39160000   1.5664e+08    9882.6823   -38423.186    276.26324   0.49704466   -28540.504    4230.9355   -385.10011   -153.18068    77.564056    421.64274    43.398246    55.445185    6279.9234 
39180000   1.5672e+08    9819.0789   -38419.371    274.48525   0.56391421   -28600.292    4352.9147   -380.86314   -155.45686    78.630535    418.81539    43.318246    55.284404    6313.3871 
39200000    1.568e+08    9900.4368   -38276.982    276.75955   0.51340669   -28376.545    4104.4571   -387.06297   -154.72859     76.79725    423.85905    43.238246    55.348508    6346.9788 
39220000   1.5688e+08    9846.6623    -38215.72    275.25632   0.62171846   -28369.058    4116.5528   -387.88112   -155.49016     76.75594    424.87695    43.158246    55.297591    6380.6142 
39240000   1.5696e+08    9859.0423   -38167.488     275.6024   0.43256261   -28308.446    4062.8337   -390.47108   -155.12269    78.882873    427.49646    43.078246    55.292434    6414.4052 
39260000   1.5704e+08    9877.7148   -38194.637    276.12437   0.58273621   -28316.922     4103.915   -389.93538   -156.10325    78.521788    427.29791    42.998246    55.206761    6448.3494 
39280000   1.5712e+08    9796.7608   -38128.152    273.86136   0.44880899   -28331.391    4183.3784    -387.2704   -156.05689     78.13699    424.77937    42.918246    55.054803    6482.4116 
39300000    1.572e+08    9957.1587    -38113.39    278.34517   0.64413567   -28156.231    4090.3551   -383.35007   -154.26581    77.791695    420.48396    42.838246    54.852077    6516.2532 
39320000   1.5728e+08    9815.7861   -38188.046     274.3932   0.58354815    -28372.26    4257.0712    -390.4503   -155.52383    78.718363    427.59289    42.758246    54.975189    6550.3067 
39340000   1.5736e+08    9830.7504   -38222.949    274.81152   0.50457174   -28392.199    4285.0126   -392.21392   -157.56851     77.06512    429.64942    42.678246    54.953947    6584.5817 
39360000   1.5744e+08    9802.1393   -38224.045    274.01172   0.43499166   -28421.906    4347.8645   -391.44698    -158.2369    81.417961     429.9983    42.598246    54.883915     6619.022 
39380000   1.5752e+08    9810.2703   -38098.058    274.23901   0.46597913   -28287.788    4307.7572   -387.20285    -155.7679    80.604413    425.07265    42.518246    54.663183    6653.4296 
39400000    1.576e+08     9809.973   -38222.307     274.2307   0.58433161   -28412.334    4355.2585    -395.4678   -159.83367    80.091387    434.00024    42.438246    54.838256     6688.015 
39420000   1.5768e+08     9850.279   -38095.294    275.35743   0.54765528   -28245.015    4222.5196    -395.1926   -161.23694     79.86394    434.22666    42.358246    54.764726     6722.677 
39440000   1.5776e+08    9745.3619   -38187.148    272.42455   0.46023193   -28441.786    4453.4233    -395.8531   -158.74457    80.375164    434.00424    42.278246    54.678371    6757.4945 
39460000   1.5784e+08    9810.3195   -38000.171    274.24039   0.57021164   -28189.851    4227.1783   -395.59155   -161.26323    81.210669    434.84903    42.198246    54.622507    6792.5057 
39480000   1.5792e+08    9954.8867   -37973.092    278.28166   0.54516147   -28018.205    3989.6652   -403.42328   -163.93832    81.590033    443.03843    42.118246     54.77649    6827.6549 
39500000     1.58e+08    9893.3264   -38133.933    276.56079    0.5838948   -28240.607    4236.8615   -404.62138   -162.47052    83.650734    443.97362    42.038246     54.72321    6862.9938 
39520000   1.5808e+08    9822.3087   -37971.305    274.57554   0.55341142   -28148.997    4182.2708   -404.76773   -162.14661    81.882693    443.65889    41.958246    54.634218    6898.3816 
39540000   1.5816e+08    9821.1244   -38003.077    274.54243   0.67860125   -28181.952    4294.0691   -401.84471    -160.7813    79.000921    439.96698    41.878246    54.448735    6933.8138 
39560000   1.5824e+08    9844.6283   -38218.287    275.19946   0.52253908   -28373.659    4397.0709   -410.45998   -164.46908    83.046838    449.91583    41.798246    54.652988    6969.4015 
39580000   1.5832e+08    9817.2995   -38081.358    274.43551   0.63290748   -28264.058    4374.2629   -406.98521    -162.5687    81.501933    445.76688    41.718246    54.454446    7005.2352 
39600000    1.584e+08    9854.4095   -38066.032    275.47289   0.38539904   -28211.623    4303.7592   -409.46488    -166.4622    84.823782    450.07358    41.638246    54.497495    7041.0766 
39620000   1.5848e+08    9844.5292   -38055.312     275.1967   0.59814504   -28210.783     4301.723   -413.33339   -165.26487    84.176938    453.03722    41.558246     54.50217    7077.0627 
39640000   1.5856e+08    9785.4906    -38104.29    273.54631   0.58610342     -28318.8     4419.001   -414.70084   -167.57662    83.772081    455.05656    41.478246    54.479865    7113.2418 
39660000   1.5864e+08    9793.8322   -38075.207     273.7795   0.51526917   -28281.375    4420.0407   -414.69877    -167.4766    83.839535    455.03027    41.398246    54.399114    7149.5636 
39680000   1.5872e+08    9850.2048     -37894.5    275.35535   0.58996305   -28044.295    4225.0951   -414.91016   -165.49558    84.234174    454.57081    41.318246    54.305987    7186.0584 
39700000    1.588e+08    9775.8396   -38033.172    273.27653   0.62325186   -28257.333    4466.2048   -415.54409   -165.20283     84.39075    455.07215    41.238246    54.240311    7222.6898 
39720000   1.5888e+08    9873.1924   -38087.138    275.99795   0.54566541   -28213.946    4371.7104   -420.65549   -170.09607    86.351616    461.88778    41.158246    54.355043    7259.5336 
39740000   1.5896e+08     9929.145   -37841.241    277.56207   0.61062698   -27912.096    4176.4664   -416.13043   -167.73154    84.490241    456.54902    41.078246    54.122507    7296.4889 
39760000   1.5904e+08    9857.7217   -38053.779    275.56548   0.52538396   -28196.057    4406.4388   -422.57607   -170.63483    84.068915    463.41597    40.998246    54.238706    7333.5325 
39780000   1.5912e+08    9914.4781   -37889.162    277.15207   0.61350555   -27974.684    4202.3563   -422.83164   -172.82765    86.625463    464.93006    40.918246    54.201966    7370.7432 
39800000    1.592e+08    9671.5563   -37831.307    270.36136   0.56794996   -28159.751    4412.6502   -424.84001   -171.20789    85.336842    465.92225    40.838246    54.150314    7408.1521 
39820000   1.5928e+08    9861.2224   -37812.948    275.66334   0.64544182   -27951.725    4227.6124   -426.13181   -170.13898    86.951886    467.00773    40.758246    54.101328     7445.741 
39840000   1.5936e+08    9850.8005   -38022.846      275.372   0.61917753   -28172.045    4464.7499    -427.8606   -170.15978    85.989157     468.4156    40.678246    54.061553    7483.3326 
39860000   1.5944e+08    9781.9039   -38087.619    273.44605   0.58193539   -28305.715    4563.0658   -431.98291   -174.35251    86.228381    473.75454    40.598246    54.134094    7521.0762 
39880000   1.5952e+08    9803.1408   -37949.254    274.03971   0.52392585   -28146.113    4401.7697   -434.60532   -175.74491    86.839663    476.76953    40.518246    54.140236    7558.9314 
39900000    1.596e+08    9834.3634    -37915.39    274.91252   0.54168845   -28081.027    4428.9697    -430.7527   -174.44133    87.408981    472.88264    40.438246    53.949182    7596.9622 
39920000   1.5968e+08    9776.7815   -37945.758    273.30286   0.70414848   -28168.976    4445.1001   -438.09954   -175.77256    90.652827    480.67155    40.358246    54.091722    7635.0792 
39940000   1.5976e+08    9931.7544   -37655.428    277.63501    0.6183604   -27723.674    4111.3012   -433.70198    -174.0294    87.922338    475.51444    40.278246    53.864376    7673.3351 
39960000   1.5984e+08     9741.826   -37901.408     272.3257   0.68432538   -28159.582    4594.1255   -431.67411   -176.67773    87.367754    474.54261    40.198246     53.75661    7711.6296 
39980000   1.5992e+08    9827.0457   -37853.901    274.70796   0.62092251   -28026.855    4439.8583   -436.97825    -176.1618    87.486989    479.20449    40.118246    53.809806    7750.0483 
40000000      1.6e+08    9945.2043   -37691.395      278.011   0.60472809   -27746.191     4169.135      -438.43   -177.30845    89.769718     481.3707    40.038246    53.791698    7788.6046 
Loop time of 664257 on 72 procs for 40000000 steps with 12002 atoms

Performance: 20.811 ns/day, 1.153 hours/ns, 60.218 timesteps/s
96.9% CPU use with 72 MPI tasks x no OpenMP threads

MPI task timing breakdown:
Section |  min time  |  avg time  |  max time  |%varavg| %total
---------------------------------------------------------------
Pair    | 1.6338     | 12556      | 2.8564e+05 |45632.4 |  1.89
Bond    | 1.7442     | 80         | 1462.7     |3505.3 |  0.01
Neigh   | 2.8999e+05 | 2.9146e+05 | 2.9197e+05 |  72.8 | 43.88
Comm    | 730.65     | 9797.2     | 1.2053e+05 |27643.8 |  1.47
Output  | 53557      | 53600      | 53685      |   9.4 |  8.07
Modify  | 12250      | 2.9327e+05 | 3.1488e+05 |13084.8 | 44.15
Other   |            | 3499       |            |       |  0.53

Nlocal:        166.694 ave        3130 max           0 min
Histogram: 68 0 0 0 0 0 0 0 1 3
Nghost:        460.292 ave        7605 max           0 min
Histogram: 66 2 0 0 0 0 0 0 0 4
Neighs:        20810.2 ave      448688 max           0 min
Histogram: 68 0 0 0 0 0 1 0 2 1

Total # of neighbors = 1498338
Ave neighs/atom = 124.84069
Ave special neighs/atom = 185.06916
Neighbor list builds = 4000000
Dangerous builds = 0
Total wall time: 184:30:58
