LAMMPS (29 Oct 2020)
################################################################################################################
# Template input file to run umbrella sampling
# run 200000 steps0
# read from restart file
# deleted velocity line
# reset timestep to 0 befre running the simulation
################################################################################################################

################################################################################################################
# VARIABLES
################################################################################################################
clear
variable rcut        equal 17.5     #est. 3.5*diameter
variable epsilon     equal 0.8126   #unit conversion
variable sigma       equal 4.7
variable shift       equal 23.5     #center particle radius
variable epsilon_cp  equal 0.5067
variable sigma_cp    equal 5.2
variable epsilon_pp  equal 1.1926
variable sigma_pp    equal 4.7
variable bondKeq     equal 2.9876
variable bondReq1    equal 23.5
variable bondReq2    equal 4.7
variable dt          equal 4.0
variable startTemp   equal 275.0
variable stopTemp    equal 275.0
variable Tdamp       equal 100.0
variable springKeq   equal 35.0
variable velocity    equal -0.0001
variable springX     equal 200.0
variable springY     equal 0.0
variable springZ     equal 0.0
variable springReq   equal 0.0

################################################################################################################
# SETUP
################################################################################################################
units		real
atom_style	molecular
atom_modify     sort 0 0.0       #print out in frames in order

read_data       data.twoParticles
Reading data file ...
  orthogonal box = (0.0000000 0.0000000 0.0000000) to (1000.0000 1000.0000 1000.0000)
  2 by 2 by 2 MPI processor grid
  reading atoms ...
  12002 atoms
  scanning bonds ...
  600 = max bonds/atom
  reading bonds ...
  12000 bonds
Finding 1-2 1-3 1-4 neighbors ...
  special bond factors lj:    0.0      0.0      0.0     
  special bond factors coul:  0.0      0.0      0.0     
   600 = max # of 1-2 neighbors
   600 = max # of 1-3 neighbors
  1200 = max # of 1-4 neighbors
  1800 = max # of special neighbors
  special bonds CPU = 0.053 seconds
  read_data CPU = 0.085 seconds
velocity        all create ${startTemp} 4834834 rot yes mom yes dist gaussian        #turn off rotation and momentum of the particles
velocity        all create 275 4834834 rot yes mom yes dist gaussian        

#read_restart    generic.restart

pair_style	lj/expand ${rcut}
pair_style	lj/expand 17.5
pair_coeff      1 1 0 0 0
pair_coeff      1 2 ${epsilon} ${sigma} ${shift}
pair_coeff      1 2 0.8126 ${sigma} ${shift}
pair_coeff      1 2 0.8126 4.7 ${shift}
pair_coeff      1 2 0.8126 4.7 23.5
pair_coeff      1 3 ${epsilon} ${sigma} ${shift}
pair_coeff      1 3 0.8126 ${sigma} ${shift}
pair_coeff      1 3 0.8126 4.7 ${shift}
pair_coeff      1 3 0.8126 4.7 23.5
pair_coeff      2 2 ${epsilon} ${sigma} 0
pair_coeff      2 2 0.8126 ${sigma} 0
pair_coeff      2 2 0.8126 4.7 0
pair_coeff      2 3 ${epsilon_cp} ${sigma_cp} 0
pair_coeff      2 3 0.5067 ${sigma_cp} 0
pair_coeff      2 3 0.5067 5.2 0
pair_coeff      3 3 ${epsilon_pp} ${sigma_pp} 0
pair_coeff      3 3 1.1926 ${sigma_pp} 0
pair_coeff      3 3 1.1926 4.7 0
special_bonds   lj 0.0 1.0 1.0   #turn off LJ interaction for directly bonded atoms (1-2)
Finding 1-2 1-3 1-4 neighbors ...
  special bond factors lj:    0.0      1.0      1.0     
  special bond factors coul:  0.0      0.0      0.0     
   600 = max # of 1-2 neighbors
   600 = max # of 1-3 neighbors
  1200 = max # of 1-4 neighbors
  1800 = max # of special neighbors
  special bonds CPU = 0.050 seconds

bond_style      harmonic
bond_coeff      1 ${bondKeq} ${bondReq1}
bond_coeff      1 2.9876 ${bondReq1}
bond_coeff      1 2.9876 23.5
bond_coeff      2 ${bondKeq} ${bondReq2}
bond_coeff      2 2.9876 ${bondReq2}
bond_coeff      2 2.9876 4.7
bond_coeff      3 ${bondKeq} ${bondReq2}
bond_coeff      3 2.9876 ${bondReq2}
bond_coeff      3 2.9876 4.7
bond_coeff      4 ${bondKeq} ${bondReq2}
bond_coeff      4 2.9876 ${bondReq2}
bond_coeff      4 2.9876 4.7

neighbor	2.0 bin            #consider cutoff +2 as neighbor
neigh_modify	every 1 delay 0 check yes     #every x step//no delay//check the neighbor list to see if need to update

restart         10 nvt.a.restart nvt.b.restart  #print restart every 10 ?steps?

timestep	${dt}
timestep	4

################################################################################################################
# SIMULATION
################################################################################################################
group           centroid1 id 1           # define group names
1 atoms in group centroid1
group           centroid2 id 6002
1 atoms in group centroid2

fix		1 all nvt temp ${startTemp} ${stopTemp} ${Tdamp}            #last number is how aggressive we want to derive the T back
fix		1 all nvt temp 275 ${stopTemp} ${Tdamp}            
fix		1 all nvt temp 275 275 ${Tdamp}            
fix		1 all nvt temp 275 275 100            
fix             2 centroid1 smd cvel ${springKeq} ${velocity} couple centroid2 auto auto auto ${springReq}
fix             2 centroid1 smd cvel 35 ${velocity} couple centroid2 auto auto auto ${springReq}
fix             2 centroid1 smd cvel 35 -0.0001 couple centroid2 auto auto auto ${springReq}
fix             2 centroid1 smd cvel 35 -0.0001 couple centroid2 auto auto auto 0

thermo_style    custom step time ke pe temp press etotal f_1 f_2[1] f_2[2] f_2[3] f_2[4] f_2[5] f_2[6] f_2[7] # SMD fix computes a "vector" of numbers, have to print the individual elements, as thermo custom only prints scalar numbers (7 quantities described in manual)
thermo          200                  #give an output every x step

dump            1 all custom 200 twoParticles.lammpstrj id type element xu yu zu fx fy fz    #print every x step
dump_modify     1 element A B C     #give element names

run		400000
Neighbor list info ...
  update every 1 steps, delay 0 steps, check yes
  max neighbors/atom: 2000, page size: 100000
  master list distance cutoff = 43
  ghost atom cutoff = 43
  binsize = 21.5, bins = 47 47 47
  1 neighbor lists, perpetual/occasional/extra = 1 0 0
  (1) pair lj/expand, perpetual
      attributes: half, newton on
      pair build: half/bin/newton
      stencil: half/bin/3d/newton
      bin: standard
Per MPI rank memory allocation (min/avg/max) = 195.3 | 196.0 | 197.1 Mbytes
Step Time KinEng PotEng Temp Press TotEng f_1 f_2[1] f_2[2] f_2[3] f_2[4] f_2[5] f_2[6] f_2[7] 
       0            0    9837.4929   -37771.155          275  0.075861616   -27933.662            0            0            0            0            0    200.03785    200.03825            0 
     200          800    9756.6328   -38005.483    272.73961 -0.020569357    -28248.85    314.80558            0            0            0            0    199.95785    199.95733  0.052548876 
     400         1600    9870.5334   -37887.854    275.92362 0.0084836995    -28017.32    83.466098   -1.2868244 0.00010894722 0.00018730216   -1.2868244    199.87785    199.84148  0.054152994 
     600         2400    9766.3274   -37992.088    273.01062 -0.044848966    -28225.76    291.09256    3.5616874 0.00032137016 -0.0033774913    3.5616891    199.79785    199.90001   0.20818512 
     800         3200    9928.4528     -37915.3    277.54272  0.092865109   -27986.847    50.964867   0.52234395 8.7171491e-05 -6.8030845e-05   0.52234396    199.71785    199.73317   0.24542751 
    1000         4000     9720.411   -37896.786    271.72706   0.13815859   -28176.375     241.2857    4.9950985 -0.0031527834 -0.0010918085    4.9950997    199.63785    199.78097   0.42168725 
    1200         4800    9853.6519   -37836.718    275.45171   0.06320553   -27983.066    49.530664    3.7035331 -0.0016717203 -0.0024010539    3.7035343    199.55785    199.66406   0.74714346 
    1400         5600    9860.8186   -38095.025    275.65205 -0.075460582   -28234.207    299.82159    2.5519003 -0.0021870168 -0.0020474265     2.551902    199.47785    199.55116   0.93720678 
    1600         6400    9878.9637   -37967.404    276.15929 -0.070138928    -28088.44    155.69277    6.9959431 -0.012080775 -0.0022479199    6.9959539    199.39785    199.59813    1.4108173 
    1800         7200    9708.4301     -37938.9    271.39214 -0.037424616    -28230.47    298.72517     5.472364 -0.010228261 -0.00087316631    5.4723736    199.31785     199.4746    1.9715084 
    2000         8000    9936.5524    -37990.97    277.76914 -0.029771331   -28054.418    121.47767    5.9875806 -0.0080188429 0.0028534899    5.9875866    199.23785    199.40932      2.44891 
    2200         8800    9838.1728   -38070.483    275.01901  0.027389057    -28232.31    298.79846    6.2629665 -0.0055106322 0.0044705167    6.2629706    199.15785    199.33719    2.9576454 
    2400         9600    9794.4095    -37966.88    273.79564  0.064416958   -28172.471     236.4976    9.3516577 -0.0072594366 0.0060531179    9.3516625    199.07785    199.34544    3.5308811 
    2600        10400    9903.2135   -37920.911    276.83717  0.091887753   -28017.697    83.529201    10.686332 -0.0076525285 0.0077731359    10.686337    198.99785    199.30357    4.2458311 
    2800        11200    9819.7594   -37984.784    274.50427  0.028821809   -28165.025    234.34507    6.2777709 -0.0011948633 0.0037873962    6.2777721    198.91785    199.09761    4.9595419 
    3000        12000    9820.1103   -37891.053    274.51408  -0.03066202   -28070.943    142.01227    4.2911463 -0.00051668178 0.00097202223    4.2911465    198.83785    198.96085    5.3425764 
    3200        12800    9822.1919   -37901.283    274.57227 -0.014365684   -28079.091    149.45853    3.8035981 0.00032853869 0.0014595876    3.8035984    198.75785    198.86692    5.6869922 
    3400        13600    9731.9385   -37902.614     272.0493 -0.020231704   -28170.675     242.3452    2.7633652 -0.0025327012 0.0015303439    2.7633668    198.67785     198.7572    5.9255081 
    3600        14400    9974.2773    -37955.54    278.82371 -0.0061694371   -27981.262    52.285768    2.1719691 -0.0026041746 -0.00012674183    2.1719707    198.59785    198.66031    6.2189271 
    3800        15200    9949.8593   -37986.385    278.14112  0.040916131   -28036.525    107.14496   -2.8044807  0.003077608 -0.00041036997   -2.8044825    198.51785    198.43812    6.2245331 
    4000        16000    9813.4729   -37922.671    274.32854  0.013835588   -28109.198    178.84443   -5.1733361 0.0051749508 -0.0051323014   -5.1733413    198.43785    198.29044    5.9749943 
    4200        16800    9709.7828   -37866.224    271.42996 -0.0064302393   -28156.442    226.87122   -3.4113994 0.0026392847 -0.0017148242   -3.4114008    198.35785    198.26078    5.5763316 
    4400        17600     9917.143   -37981.742    277.22656  0.014900875   -28064.599    135.36245   -1.2248453 0.0020043816 -0.0011475478   -1.2248475    198.27785    198.24325    5.3142497 
    4600        18400    9753.3585   -37929.425    272.64809  0.058718143   -28176.066    246.06234  -0.68868924 0.0011158539 4.7992181e-06  -0.68869015    198.19785    198.17857    5.2632026 
    4800        19200    9995.8133   -37937.044    279.42573  0.010630506    -27941.23    10.852797   -3.4143875 0.0046256214 0.0024492751   -3.4143915    198.11785     198.0207    5.0242899 
    5000        20000    9922.7201   -37972.022    277.38247 -0.034392213   -28049.302    119.02146    1.4718896 -0.0027257382 -0.00073736701    1.4718923    198.03785     198.0803    4.9320121 
    5200        20800    9710.2944   -37850.099    271.44426   0.12325912   -28139.805    208.41737    1.9658149 -0.004110698 0.00029512739    1.9658192    197.95785    198.01442    5.1266689 
    5400        21600    9877.0094   -37924.194    276.10466   0.10557621   -28047.185    116.61187   -2.8485939 0.0062928201 0.00031362736   -2.8486008    197.87785    197.79686    5.1019484 
    5600        22400    9844.5957   -37967.266    275.19855  0.051965404    -28122.67    193.84862    1.3582101 -0.002172121 1.6252891e-05    1.3582119    197.79785    197.83706    5.1130168 
    5800        23200    9843.6476   -37830.581    275.17205 -0.070587409   -27986.934    58.126834   0.37761707 -0.00048415917 -0.00026778588   0.37761748    197.71785    197.72904    5.2421551 
    6000        24000    9884.1757   -37958.603    276.30498  0.025996878   -28074.428    144.01789   -2.8176376 0.0039592361 0.00088373339   -2.8176405    197.63785    197.55775    5.1800564 
    6200        24800    9776.1371   -37815.421    273.28484   0.10532378   -28039.284    107.37788   -5.8954883 0.0080563937 -0.00083095435   -5.8954938    197.55785    197.38981    4.9392462 
    6400        25600    9750.3225   -37985.851    272.56321  0.046966985   -28235.528    303.92746   -6.5057817 0.0052147368 0.00094794586   -6.5057839    197.47785    197.29237    4.3970272 
    6600        26400    9839.9512   -37965.444    275.06872 -0.019303443   -28125.493    195.84265   -5.4525305 0.0061687558  0.004359561   -5.4525357    197.39785    197.24246    3.8721245 
    6800        27200    9749.4639       -38020    272.53921 -0.047217053   -28270.536    340.95902   -3.6190257 0.0024042528 0.0006057503   -3.6190265    197.31785    197.21485    3.5351654 
    7000        28000    9887.8931   -38026.772     276.4089 0.0081850686   -28138.879    208.30579   -2.7501832 -1.0636389e-05 0.0017454044   -2.7501838    197.23785    197.15967    3.1500273 
    7200        28800    9867.2485   -38016.627     275.8318  -0.04675204   -28149.379     215.4098    -5.263575 -0.0021475963 0.0021885548   -5.2635758    197.15785    197.00786    2.8687376 
    7400        29600    9822.0443   -38123.558    274.56815  0.074013571   -28301.514    366.50974    -8.992366 0.00085166081 0.0015180112   -8.9923662    197.07785    196.82132    2.3812411 
    7600        30400     9841.404   -38039.015    275.10933 -0.0031017689   -28197.611    262.58209   -7.9589316 -0.0036912693 0.0077897009   -7.9589363    196.99785    196.77085    1.6446974 
    7800        31200    9847.9588   -38046.187    275.29257    0.0629604   -28198.228    263.59972   -2.9094166 -0.0014980985 -0.00045510132    -2.909417    196.91785    196.83512    1.2511811 
    8000        32000     9860.841   -38168.899    275.65268 -0.066648327   -28308.058    372.00239    2.6242228 0.0015082334 -0.00014107773    2.6242232    196.83785    196.91323    1.2738533 
    8200        32800    9859.2849   -38000.458    275.60918  0.078197287   -28141.173    206.81018    2.0343791 0.0012122645 0.00034144265    2.0343795    196.75785    196.81637     1.512204 
    8400        33600    9944.3514   -38052.061    277.98715 -0.016986695    -28107.71    174.34453    5.1079295 -0.0020231992 0.0026370075    5.1079306    196.67785    196.82419     1.831964 
    8600        34400    9831.6433    -38018.02    274.83648 -0.088965849   -28186.377    253.42447 -0.041375897 1.7568111e-05 -7.9926421e-06 -0.041375902    196.59785    196.59707     1.972215 
    8800        35200    9928.7729   -38124.668    277.55167  -0.10424747   -28195.895     262.4577  -0.93807738 0.0007990219 -0.00036864622   -0.9380778    196.51785    196.49145    1.8829782 
    9000        36000    9859.8066   -38075.107    275.62376  0.038608695     -28215.3    279.32347   -2.7660179 0.00024731505 -0.0030238062   -2.7660195    196.43785    196.35922    1.7897142 
    9200        36800    9858.1048   -38131.917    275.57619   0.14543169   -28273.812    336.69302   -1.8541189 0.00082744826 -0.00065278331   -1.8541192    196.35785    196.30527    1.5865364 
    9400        37600    9878.7527    -38020.82    276.15339   0.10828883   -28142.067    206.02394   -5.0307691 0.0033809014 -0.0034011559   -5.0307714    196.27785    196.13451    1.3136536 
    9600        38400    9998.8982   -37980.643    279.51197  0.015703629   -27981.745    48.998138   -2.6778851 0.0014627604 0.00027824796   -2.6778855    196.19785    196.12174    1.0395145 
    9800        39200    9786.4669   -37842.889    273.57361  -0.12455407   -28056.422    125.05872   -3.1711249 0.00029386503 0.00054286713    -3.171125    196.11785    196.02765   0.74766634 
   10000        40000    9882.4331   -38191.089    276.25627  0.016805326   -28308.656     374.5302   -2.5233108 0.0017467486 -0.00076443382   -2.5233115    196.03785    195.96615   0.49212536 
   10200        40800    9819.8109   -38101.318    274.50571  0.071507834   -28281.507    345.50333   0.34790415 -0.00026695523 0.00025305816   0.34790434    195.95785    195.96819   0.41402188 
   10400        41600    9920.7188   -37927.346    277.32652  0.071877429   -28006.627    71.923421    2.2137419 -0.0022334341 0.0027602914    2.2137447    195.87785     195.9415   0.49435967 
   10600        42400    9733.9075   -37897.657    272.10435 -0.028595539   -28163.749    230.93132    3.2602563 -0.0016866965 0.0022632638    3.2602575    195.79785     195.8914     0.728324 
   10800        43200    9783.2423   -37866.083    273.48346 -0.044572413   -28082.841    151.01524    4.0701534 -0.00011873717 0.00081620485    4.0701535    195.71785    195.83454    1.0370603 
   11000        44000    9713.7032   -37893.127    271.53955 -0.056938994   -28179.424    246.38654    8.7905193 -0.0056531816 0.00050265506    8.7905211    195.63785    195.88941    1.5660073 
   11200        44800    9715.4448   -38040.085    271.58823  0.088067385    -28324.64    388.56232     10.41869 -0.0017698839 0.0021772452     10.41869    195.55785    195.85593    2.2771735 
   11400        45600     9801.474   -38126.821    273.99312  0.046410086   -28325.347    387.35723    11.564939 0.0032067362 -0.0016330696     11.56494    195.47785    195.80868    3.1991827 
   11600        46400    9859.7763    -38024.69    275.62292 0.0059361718   -28164.914    229.76187    11.206458 0.0010276079 0.0013313651    11.206458    195.39785    195.71843    4.0747231 
   11800        47200    9821.7933    -38093.87    274.56113  -0.10674716   -28272.077     341.7636    4.9261212 -0.0022154434 -0.00019739961    4.9261217    195.31785      195.459    4.7150426 
   12000        48000    9828.0271   -38084.488    274.73539   -0.1200656   -28256.461    327.27326    5.6527726 -0.0014517794 -0.0037791186    5.6527741    195.23785    195.39976    5.1276248 
   12200        48800    9824.5236   -38132.715    274.63745  0.029307599   -28308.191    377.45205    2.9391674 0.0012649504 -0.0023455724    2.9391686    195.15785    195.24223    5.5968907 
   12400        49600    9806.8124   -38090.366    274.14235   0.16769738   -28283.554    349.98402  -0.75862938 -0.00060077771 0.00049579931  -0.75862978    195.07785    195.05657    5.6326713 
   12600        50400    9800.5433   -38147.391     273.9671   0.10640881   -28346.848    412.25851  -0.85405401 -0.00066272524 0.00035185617  -0.85405434    194.99785    194.97385    5.5030804 
   12800        51200    9771.4166   -38228.234    273.15289 0.0056744047   -28456.817    525.52291    2.0599417 0.0010567734 -0.0018174105    2.0599428    194.91785     194.9771    5.4175549 
   13000        52000    9871.4868   -38082.716    275.95028  -0.15240608    -28211.23    282.55694   0.72604042 -0.00030919976 -0.00074254444   0.72604086    194.83785    194.85899    5.5290089 
   13200        52800    9916.1057   -38023.195    277.19757  0.051053046   -28107.089    178.20228  -0.64321593 -1.8742717e-05 0.0010096146  -0.64321672    194.75785    194.73987    5.4781698 
   13400        53600     9773.525   -38158.741    273.21182  0.083112342   -28385.215     452.6275    1.9433826 -0.001488554 -0.0030136145    1.9433855    194.67785    194.73377    5.6242587 
   13600        54400    9823.0892    -38187.44    274.59736   0.21128117   -28364.351    430.84551    1.4863891 -0.0013047126 -0.0024830979    1.4863918    194.59785    194.64072    5.7909007 
   13800        55200    9857.9897   -38120.223    275.57297 -0.076372149   -28262.233    331.38277     1.789717 -0.002489311 -0.0028268636     1.789721    194.51785    194.56938    5.9860072 
   14000        56000    9821.3844    -38028.58     274.5497  -0.18629874   -28207.196     277.9623  -0.11178557 0.00016910973 0.00013196519  -0.11178578    194.43785    194.43506    5.9631207 
   14200        56800    9707.7439    -38083.24    271.37296 -0.049056781   -28375.496    443.34695    6.3501476 -0.015534794 -0.0095483794    6.3501737    194.35785    194.53968    6.0891361 
   14400        57600    9793.4797   -38094.772    273.76964   0.14129964   -28301.292    367.42653    4.3774014 -0.009257893 -0.0075104303    4.3774176    194.27785    194.40332    6.5097046 
   14600        58400     9817.365   -38124.982    274.43734  0.038810832   -28307.617    376.36405    3.6352927 -0.0058692888 -0.0046277923    3.6353004    194.19785    194.30212    6.8157327 
   14800        59200    9919.9688   -37949.406    277.30555 -0.082975538   -28029.438    100.65603    4.9735677 -0.0089342743 -0.0078325147    4.9735819    194.11785    194.26035     7.205394 
   15000        60000    9817.8263   -37906.271    274.45023  -0.03339679   -28088.444    161.68044    1.4379694 -0.0028316737 -0.0019487048    1.4379735    194.03785    194.07933     7.546626 
   15200        60800    9854.5821   -38180.649    275.47772 -0.021433585   -28326.066    397.37514   -2.0159094 0.0026448569 0.0030979459   -2.0159135    193.95785    193.90065    7.5062757 
   15400        61600      9738.84    -37975.52    272.24223   0.11142945    -28236.68    304.61658   -8.4264043  0.013655263  0.011168872   -8.4264227    193.87785    193.63749      7.12943 
   15600        62400    9779.5235   -38013.484    273.37951 0.0094587268   -28233.961    299.53907    -14.64433  0.013844071  0.017875717   -14.644348    193.79785    193.37984    6.1989967 
   15800        63200    9929.8087   -38026.676    277.58062 -0.094319093   -28096.867    163.16543   -13.022345 0.0094879857  0.015066238   -13.022358    193.71785    193.34618    5.0744074 
   16000        64000    9841.2493   -37990.161    275.10501 -0.049372889   -28148.911    214.70592   -10.470407 0.0084756132  0.012264025   -10.470418    193.63785    193.33909    4.1864358 
   16200        64800    9767.3163   -37970.081    273.03826  0.063593674   -28202.764    265.96174   -12.996582  0.004055013  0.013401083    -12.99659    193.55785    193.18692    3.2839794 
   16400        65600    9828.4992    -38102.67    274.74859 0.0055719637   -28274.171    336.62309   -9.9303385 0.0033073966  0.013341516    -9.930348    193.47785    193.19453    2.4714407 
   16600        66400    9990.0874   -38112.627    279.26567 -0.036615961    -28122.54    185.67943    -8.642091 0.0078019803 0.0098054686   -8.6421001    193.39785    193.15133    1.6455231 
   16800        67200    9723.9603   -37948.801    271.82628 -0.047362808   -28224.841     288.7479   -5.8777809 0.0088486592 0.0036869576   -5.8777888    193.31785    193.15031   0.96859292 
   17000        68000     9832.119   -38050.046    274.84978 -0.063733706   -28217.927    280.49934   -4.1073671 0.0066499204 0.0011258672   -4.1073726    193.23785     193.1209   0.41829132 
   17200        68800    9802.3864   -38069.436    274.01862  0.077245626    -28267.05    329.58088   -4.8280022 0.0072398609 0.0012279972   -4.8280078    193.15785    193.02031   0.18336059 
   17400        69600    9869.0169   -38047.006    275.88123  0.097601458    -28177.99     240.1075   -5.3085974 0.0049165581 -0.00061087415   -5.3085997    193.07785    192.92658  -0.17255647 
   17600        70400    9830.6707   -38065.043    274.80929  -0.01094157   -28234.372    298.07014    1.0224989 -0.00059203068 8.1500845e-05    1.0224991    192.99785    193.02746  -0.33039081 
   17800        71200     9798.518   -37860.155    273.91049 -0.0023058062   -28061.637    124.42357  0.058832886 6.1790531e-06 -2.3387888e-05  0.058832891    192.91785    192.91993  -0.31537508 
   18000        72000    9690.7351   -38046.004    270.89749  0.061396736   -28355.269    417.30926   -2.1815494 0.00015970876 0.0014344537   -2.1815499    192.83785    192.77592  -0.44183911 
   18200        72800    9793.6709   -37934.081    273.77499 -0.083266391   -28140.411    201.88272   0.91835861 -0.00024491709 -0.00092911343   0.91835911    192.75785    192.78449  -0.50505067 
   18400        73600    10026.001   -37964.171    280.26962 -0.050238229    -27938.17  -0.18488985   -3.4946143 0.00069945806 0.0036795901   -3.4946163    192.67785     192.5784  -0.55675443 
   18600        74400    9841.9583   -37963.263    275.12483  -0.14751307   -28121.305    185.15303   0.83955135 -0.00036962948 -0.00056856189   0.83955162    192.59785    192.62224  -0.77165885 
   18800        75200    9989.8676    -38064.51    279.25952 -0.0018077402   -28074.642    137.26089    1.7041844 -0.0018672105 -0.0011736912    1.7041858    192.51785    192.56694  -0.79490386 
   19000        76000    9912.2246   -37915.429    277.08907   0.11015536   -28003.205    64.418666    5.3230106 -0.0054046408 -0.0036287326    5.3230146    192.43785    192.59034  -0.60018038 
   19200        76800     9766.822   -38014.643    273.02445  0.058828906   -28247.821    308.54364    8.0663226 -0.013281124 -0.00038746556    8.0663336    192.35785    192.58872 -0.027977858 
   19400        77600    9787.2724   -38048.812    273.59612 -0.038315577   -28261.539     323.8719    13.257089 -0.015585806 -0.0009064204    13.257099    192.27785    192.65702   0.85948446 
   19600        78400    9845.7194    -37889.77    275.22997  0.011774307   -28044.051    104.77926    22.016546 -0.018908898  0.010767293    22.016557    192.19785    192.82729    2.3601481 
   19800        79200     9890.656    -37972.44    276.48614 -0.070616225   -28081.784    146.95738    16.431487 -0.027603496 0.0080582031    16.431513    192.11785    192.58772    3.8521964 
   20000        80000    9903.6578    -37980.93    276.84959 -0.072652709   -28077.273    143.23054    12.409559 -0.020892122 0.0084446151     12.40958    192.03785    192.39281    4.9997926 
   20200        80800    9855.0941   -38012.064    275.49203  0.021378594    -28156.97    222.29469    6.8288324 -0.014673912 -0.00070666731    6.8288482    191.95785    192.15336    5.8079556 
   20400        81600    9821.3847   -37977.478    274.54971  0.075801043   -28156.093    221.72709    8.0594361 -0.018640299 -0.0041520758    8.0594587    191.87785    192.10852    6.3746384 
   20600        82400    9739.3765   -37847.413    272.25723 -0.098448735   -28108.036    178.10202    3.1162996 -0.006988931 -0.0011009714    3.1163077    191.79785    191.88729    6.7624787 
   20800        83200    9802.0112   -38013.648    274.00814 -0.038790972   -28211.637    284.94063     4.109419 -0.0090760638 -0.0013638192    4.1094292    191.71785    191.83566    7.0726295 
   21000        84000    9886.6291   -37902.038    276.37357 -0.049343691   -28015.409    87.790799    4.1639886 -0.0069818598 -0.0024539405    4.1639952    191.63785    191.75722    7.3478345 
   21200        84800    9953.2292   -37951.783    278.23533  0.037558289   -27998.554    70.952875    3.9020901 -0.0046619394 -0.0010485382     3.902093    191.55785    191.66974    7.6576061 
   21400        85600    9770.4991    -37948.71    273.12724  0.038984803   -28178.211    250.31144    2.9900769 -0.005301874 -0.00073324256    2.9900817    191.47785    191.56368    7.9957154 
   21600        86400    9946.2553   -37933.399    278.04037 0.0083163382   -27987.143    58.704399    -3.540882 0.0065225011 -0.0018201485   -3.5408885    191.39785    191.29708    8.0002558 
   21800        87200    9870.9764    -37840.73    275.93601  0.022380716   -27969.753    41.596025  -0.29464776 0.00077702815 -0.00010816015   -0.2946488    191.31785    191.30983    7.7527193 
   22000        88000    9757.5412   -37888.699    272.76501 -0.058123189   -28131.158    204.01319   -3.6386213 0.0079353999 -0.0030654402   -3.6386313    191.23785    191.13429    7.6075923 
   22200        88800    9776.4487   -37864.601    273.29355 -0.038292523   -28088.153    159.83216   -9.7653815  0.024982977 -0.0051572743   -9.7654148    191.15785    190.87924    7.1512813 
   22400        89600    9865.5618   -38169.026    275.78465 -0.014749368   -28303.464    371.83521   -11.039374  0.021045977 0.0043293314   -11.039395    191.07785    190.76284    6.3573854 
   22600        90400    9786.0825    -38112.69    273.56286  0.048603776   -28326.607      392.645   -7.2906982  0.013963445 0.00053805573   -7.2907116    190.99785    190.78994    5.6172158 
   22800        91200    9938.1841   -38087.912    277.81475  0.007412668   -28149.728    213.89364   -11.308341  0.016841802  0.001406492   -11.308354    190.91785    190.59515    4.9336037 
   23000        92000     9772.929   -38093.894    273.19516 -0.056556326   -28320.965    387.28374   -10.187211   0.01810178 0.0019933656   -10.187227    190.83785    190.54719      3.97409 
   23200        92800    9926.8823   -37954.784    277.49882  -0.15334945   -28027.902     95.91866    -9.544426  0.020163536  0.011277744   -9.5444539    190.75785    190.48555    3.2136142 
   23400        93600    9770.6502   -37996.039    273.13146 -0.058860029   -28225.389    293.28826   -7.9843955  0.015312435 0.0014570203   -7.9844103    190.67785    190.45012    2.4756844 
   23600        94400    9765.5868   -38025.113    272.98992    0.1016582   -28259.526    323.40567   -9.5394749  0.020896777 -0.0040452368   -9.5394987    190.59785    190.32569    1.6950373 
   23800        95200    9849.1289    -38008.96    275.32528    0.1308336   -28159.831    222.03195   -4.0865129  0.011084842 -0.0019336624   -4.0865284    190.51785    190.40149    1.1471966 
   24000        96000    9786.5652   -38126.038    273.57635   0.17213473   -28339.473    401.81098   -4.0096949 0.0079309987 -0.0039493582   -4.0097046    190.43785    190.32369   0.81885474 
   24200        96800    9978.5125   -37952.138     278.9421 -0.00080581531   -27973.625    38.469353   -2.7657566 0.0069727521 -0.0021737925   -2.7657663    190.35785    190.27923   0.46468503 
   24400        97600    9768.3548   -37916.662     273.0673  -0.13668485   -28148.307    213.39204   -2.5905236 0.0062353569 0.00034979265   -2.5905311    190.27785    190.20423    0.2936347 
   24600        98400     9700.619   -38028.013    271.17379 -0.049483327   -28327.394    392.00344  -0.40402126 0.00095100678 0.00012610532  -0.40402239    190.19785    190.18671   0.16458877 
   24800        99200    9968.4599   -37953.754    278.66109 -0.00043971749   -27985.294    48.550945   -3.5162401 0.0094595834 -0.0009492655    -3.516253    190.11785    190.01779 0.0011288873 
   25000       100000    9811.3409   -37959.262    274.26894  0.069074562   -28147.921    209.17681  -0.13830908 0.00044653925 -0.00010274858  -0.13830984    190.03785     190.0343  -0.10039291 
   25200       100800    9783.3599   -38077.849    273.48675  0.022909017   -28294.489    355.54281    1.0327078 -0.0030208033 0.0004457259    1.0327123    189.95785    189.98776 -0.070299778 
   25400       101600    10016.993   -38011.117     280.0178 -0.025862204   -27994.124    57.483722    3.0358991 -0.0089337972 0.0033091417    3.0359141    189.87785    189.96499   0.11874599 
   25600       102400    9978.5916   -37817.461    278.94431 -0.092981211   -27838.869   -96.396292    7.4990282 -0.024693537  0.004372876    7.4990701    189.79785    190.01251   0.58950583 
   25800       103200    9795.4174   -37952.483    273.82381 -0.026506284   -28157.065    221.77757    9.7363067  -0.02560738 0.0013424373    9.7363405    189.71785    189.99643    1.2024407 
   26000       104000    9917.1593   -37872.383    277.22702   0.04152737   -27955.224    19.481491    8.9593296 -0.023653317 0.0018266928    8.9593611    189.63785    189.89423    2.0107649 
   26200       104800    9668.4507    -38124.55    270.27455  -0.10695273   -28456.099     520.4745    11.161534 -0.031754612 0.00049782989    11.161579    189.55785    189.87715    2.7870327 
   26400       105600    9829.5865   -38031.233    274.77898  0.029836736   -28201.646    266.40274     13.00991 -0.040832867 -0.0022379759    13.009974    189.47785    189.84996    3.7271121 
   26600       106400    9952.3027   -37997.576    278.20943  0.022928369   -28045.273    111.24169    11.378284 -0.028743714 0.0008680537    11.378321    189.39785    189.72334    4.7148659 
   26800       107200    9809.4475   -38057.878    274.21601 -0.016122112   -28248.431    316.46744     7.597541 -0.018382492 0.0027931358    7.5975638    189.31785    189.53532    5.5131406 
   27000       108000    9785.5329   -38109.992     273.5475  0.037402394   -28324.459    393.08843    7.9831154 -0.017829641 -0.001052638    7.9831354    189.23785    189.46634      6.16231 
   27200       108800    9874.3031   -38032.611      276.029 -0.022099724   -28158.308    226.51996    6.9318775  -0.02242866 0.0031461849    6.9319145    189.15785     189.3563    6.7681116 
   27400       109600    9877.7945   -38080.132     276.1266 -0.044815748   -28202.337    270.94559    7.2260458 -0.020658162 0.0043486222    7.2260767    189.07785    189.28471    7.3080267 
   27600       110400    9779.1512   -38104.744     273.3691  0.067269344   -28325.593    394.94689  -0.51703908 0.0012556845 -0.00012774464  -0.51704062    188.99785    188.98348    7.5210389 
   27800       111200    9917.9681   -38061.804    277.24963 -0.027540317   -28143.836     211.5685    -3.237364 0.0078476962 0.00044776409   -3.2373735    188.91785    188.82575     7.306133 
   28000       112000    9723.2686   -37986.646    271.80694   0.16536692   -28263.377    331.93574   -6.5095034  0.016895566 0.0039648449   -6.5095265    188.83785    188.65226    6.9142811 
   28200       112800    9880.3823   -38065.161    276.19894 -0.0032054642   -28184.779    255.03598   -6.3427108  0.019184644 0.0021825933   -6.3427401    188.75785    188.57703    6.4230053 
   28400       113600    9742.5473   -38022.732    272.34587 -0.072488322   -28280.185    351.00317   -4.1638327  0.012893616 0.0014149185   -4.1638529    188.67785    188.55928    5.9296131 
   28600       114400    9793.8808   -37953.254    273.78086  0.061999395   -28159.373    229.41575   -5.5147831  0.019428613 0.0026299278    -5.514818    188.59785    188.44068    5.4271224 
   28800       115200    9779.3117   -38192.418    273.37359 -0.0020944832   -28413.106    479.30219   -7.9845509  0.022251974 0.0027459061   -7.9845824    188.51785    188.29012    5.0261677 
   29000       116000    9875.2637   -38069.453    276.05586 -0.0043010711   -28194.189    257.36286   -6.5432797  0.018306803 0.0031241899   -6.5433061    188.43785     188.2513    4.5565492 
   29200       116800    9924.7188   -38079.936    277.43834  0.001033903   -28155.217    219.88696   -5.2033264  0.011992447 0.0023401253   -5.2033408    188.35785    188.20958    4.0445667 
   29400       117600    9814.3825   -38076.808    274.35396 -0.064130091   -28262.425    331.97798   -3.6910901 0.0090305663 0.0020669347   -3.6911017    188.27785    188.17279    3.6576987 
   29600       118400    9914.4184   -38023.079     277.1504  -0.10780055   -28108.661    179.98229   -4.0723951   0.01388028 0.0042588466   -4.0724209    188.19785    188.08189    3.1621861 
   29800       119200    9850.4338   -38115.822    275.36175  -0.06793658   -28265.389    332.68553   -6.2132544   0.02163701 0.0020579787   -6.2132924    188.11785    187.94073    2.7143137 
   30000       120000    9714.3864   -37936.209    271.55865   0.16550632   -28221.823    284.05374   -6.5896833  0.021670344   0.00197265   -6.5897192    188.03785    187.84997     2.229771 
   30200       120800    9903.2602   -38091.691    276.83848   0.21301802    -28188.43    248.80434    -3.988105  0.015028097 0.0025716724   -3.9881341    187.95785     187.8443    1.8700532 
   30400       121600    9751.2698   -38068.844     272.5897 -0.056282378   -28317.574    379.13044   -7.0973376  0.028175589 0.0068696901   -7.0973969    187.87785    187.67547    1.3923164 
   30600       122400    9865.7966   -37997.799    275.79121 -0.086660323   -28132.002    197.49569   -3.1430881  0.012949592 0.0032500207   -3.1431165    187.79785    187.70845   0.91171668 
   30800       123200    9786.4879   -37923.747    273.57419 0.0029872168   -28137.259    203.41458  -0.55951063 0.0021544205 0.00069878341  -0.55951522    187.71785    187.70226   0.75339381 
   31000       124000    9892.4989   -38088.525    276.53765  0.025194099   -28196.026    259.95579  -0.51278514 0.0019584273 0.00039314511  -0.51278904    187.63785     187.6236   0.74755466 
   31200       124800    9896.7024   -38192.316    276.65516  0.028899904   -28295.614    356.70211    3.2244608 -0.011046622 -0.0020701079    3.2244804    187.55785    187.65038    0.8658607 
   31400       125600    9809.0421    -38169.26    274.20468  0.013782622   -28360.218    421.94334    5.0038132 -0.017411001 -0.0020949908    5.0038439    187.47785    187.62122    1.2280282 
   31600       126400    9771.8001   -38050.377    273.16361 -0.041611006   -28278.577     342.6043   0.66831582 -0.0021484363 -0.00042551792   0.66831941    187.39785    187.41734     1.473984 
   31800       127200    9889.7423   -37973.096    276.46059  0.016675494   -28083.354    148.78566  -0.30391453 0.00099130951 0.00016519882  -0.30391619    187.31785    187.30957    1.5421349 
   32000       128000    9882.3969   -37926.754    276.25526  -0.02125818   -28044.357     111.0982    2.7491547 -0.010235046 -0.0032430272    2.7491756    187.23785     187.3168    1.5923099 
   32200       128800    9846.6039   -38023.622    275.25469  0.057614862   -28177.018    244.11447    4.1132286 -0.017000946 -0.0043089902     4.113266    187.15785    187.27577    1.9550842 
   32400       129600    9971.1126   -37830.413    278.73524 -0.0021004785   -27859.301   -74.249495    2.6930261 -0.011050463 -0.0034192575     2.693051    187.07785    187.15519    2.2567322 
   32600       130400    9692.4105   -38062.286    270.94433 -0.075730025   -28369.875    435.80546   -1.1720355 0.0047680049 0.0012678021   -1.1720458    186.99785    186.96476     2.288242 
   32800       131200    9946.0146   -38111.153    278.03365 -0.00093465195   -28165.138     229.6911   0.84143468 -0.0038093762 -0.0010775216     0.841444    186.91785    186.94229    2.3074496 
   33000       132000    9946.1501   -38063.887    278.03743 -0.013242668   -28117.737    181.69815    2.8507598 -0.010877492 -0.0027088919    2.8507818    186.83785     186.9197    2.5211627 
   33200       132800    9659.9585   -38111.285    270.03715  0.019983419   -28451.326    516.06397    4.8293448 -0.016381385 -0.0069935677    4.8293776    186.75785    186.89623     2.779019 
   33400       133600    9922.2271   -38054.519    277.36868  0.024410711   -28132.292    196.54592     3.374421 -0.014078084 -0.0027595792    3.3744515    186.67785    186.77466    3.2116941 
   33600       134400    9768.8038   -38088.957    273.07985  0.037498466   -28320.153    385.38974    3.9935832 -0.017422076 -0.0049746287    3.9936243    186.59785    186.71235    3.4801406 
   33800       135200    9816.7301   -38044.248    274.41959  0.049832705   -28227.518    291.38403    9.9660702 -0.045646015 -0.018520262    9.9661919    186.51785      186.803    3.9629147 
   34000       136000    9896.7591   -38037.395    276.65674  -0.01852989   -28140.636     207.6092    3.7566453 -0.019511856 -0.0068842985    3.7567023    186.43785    186.54558    4.5192848 
   34200       136800    9847.2672   -37902.643    275.27324 -0.056405477   -28055.375    122.11144    1.5965436 -0.0090645352 -0.0033867605    1.5965729    186.35785    186.40387    4.7851855 
   34400       137600    9782.6317   -37866.153    273.46639   0.11384675   -28083.521    150.74815    3.5338328 -0.018267913 -0.0075845833    3.5338881    186.27785    186.37922    4.9913104 
   34600       138400    9732.5231   -38137.589    272.06565   -0.0594466   -28405.065    471.24677   0.36176471 -0.0015665994 -0.0005543968   0.36176853    186.19785    186.20859    5.0985142 
   34800       139200    9910.9797   -38126.703    277.05427 -0.0060795718   -28215.723    282.45294  -0.92596906 0.0042624987 0.0012873896  -0.92597977    186.11785    186.09179    5.2055414 
   35000       140000    9797.9441   -38079.538    273.89444 -0.031965745   -28281.594    349.07689    2.7231081 -0.013200178 -0.004411685    2.7231437    186.03785    186.11605    5.3001702 
   35200       140800    9858.9463   -38059.467    275.59971  0.034310996   -28200.521    270.17575  -0.78319574 0.0040341547 0.0009169935  -0.78320667    185.95785    185.93587    5.4193791 
   35400       141600    9894.9808    -38136.67    276.60703 -0.0077558206   -28241.689    310.07712   -3.2447363  0.016623618 0.0059602528   -3.2447843    185.87785    185.78554    5.2271119 
   35600       142400    9873.7044   -37996.768    276.01227 -0.021660617   -28123.064     190.9394   0.68644426 -0.0030542443 -0.001099558   0.68645194    185.79785    185.81786    5.1302797 
   35800       143200    9946.2619   -38191.441    278.04056 -0.011996919   -28245.179    310.31767   -3.0253982   0.01427332 0.0056570091   -3.0254372    185.71785    185.63181    5.0341178 
   36000       144000    9836.0621   -38144.805       274.96  0.041079767   -28308.743    374.18809   -3.5323631  0.017356558 0.0058534915   -3.5324106    185.63785    185.53732    4.7625717 
   36200       144800    9864.4454   -38019.092    275.75344 0.0067869632   -28154.647     222.3888   0.97858772 -0.0040026986 -0.0014554689   0.97859699    185.55785    185.58621    4.7323634 
   36400       145600    9913.4591   -37919.665    277.12358 -0.033198628   -28006.205    74.029613   -4.1349188  0.016437241  0.007120192   -4.1349576    185.47785    185.36011    4.5865079 
   36600       146400    9863.2918   -38013.638    275.72119 -0.082478466   -28150.346    219.63841   0.73091722 -0.0028745963 -0.00096736891   0.73092351    185.39785    185.41913    4.3694198 
   36800       147200    9874.7256    -38053.79    276.04081 -0.087197278   -28179.065    247.05107   0.39713778 -0.0018566918 -0.0003058469   0.39714224    185.31785     185.3296    4.5155009 
   37000       148000    9817.6281   -38130.698    274.44469  0.021924404    -28313.07    379.49814   -3.8324516  0.019019008 0.0027452966   -3.8324998    185.23785    185.12875    4.3615909 
   37200       148800    9792.0373   -38188.873    273.72932  0.078663845   -28396.836       463.69   -4.0912861  0.020784474  0.005193434   -4.0913422    185.15785    185.04135     4.013492 
   37400       149600    9854.2584    -38126.26    275.46867   -0.1011805   -28272.002    339.46056   -2.4514536  0.011879728 0.0041368336   -2.4514858    185.07785    185.00821    3.7510054 
   37600       150400     9780.191   -37978.209    273.39817 -0.045395983   -28198.018    267.25002   -4.6397481  0.023767659 0.0093228519   -4.6398184    184.99785    184.86568    3.5232802 
   37800       151200    9925.6003   -37950.107    277.46298  -0.08595988   -28024.507     92.62587   -1.1347703  0.006691989 0.0011114968   -1.1347906    184.91785    184.88583    3.3069029 
   38000       152000    9821.9614   -38082.403    274.56583 -0.076690682   -28260.441     326.4757  -0.80822183 0.0042147957 0.00070919736  -0.80823313    184.83785    184.81516    3.2860322 
   38200       152800    9963.4506   -38023.283    278.52106  0.003835332   -28059.832    122.70409   -3.8080262  0.018727273 0.0047270497   -3.8080752    184.75785    184.64945    3.0640749 
   38400       153600    9763.4753   -38050.669    272.93089 -0.0048488283   -28287.194    351.56162   -4.0156517  0.018732555 0.0050264901   -4.0156985    184.67785    184.56352    2.7573461 
   38600       154400    9882.0697   -38079.542    276.24611 -0.023652697   -28197.473    263.21356   -2.2252357  0.010975363 0.0030271379   -2.2252648    184.59785    184.53467    2.4373993 
   38800       155200    9815.5497   -37996.694    274.38659 -0.065955916   -28181.144    246.97646   -4.2478173  0.020755917 0.0059089924   -4.2478722    184.51785    184.39688    2.1522546 
   39000       156000    9829.0088   -37952.851    274.76283 -0.084724584   -28123.842    189.24377   -3.1801186  0.014419116 0.0055251032    -3.180156    184.43785    184.34739    1.9856983 
   39200       156800    9880.7472   -38221.608    276.20914  0.075310817   -28340.861    404.34556   -1.1960066 0.0059611694 0.0013387729   -1.1960222    184.35785    184.32408     1.711979 
   39400       157600    9778.6073    -38142.67     273.3539   0.11245321   -28364.063    425.53617   0.71530265 -0.0034727446 -0.0011208345   0.71531196    184.27785    184.29869    1.6171102 
   39600       158400    9730.3619   -38108.045    272.00523  0.030390457   -28377.684    440.13374    1.9423122 -0.0092429241 -0.0036148183    1.9423376    184.19785    184.25374    1.8289121 
   39800       159200    9748.2974    -38137.14     272.5066 -0.017779858   -28388.842    454.25017   0.74891383 -0.0033214033 -0.0014624705   0.74892262    184.11785    184.13965    1.9143648 
   40000       160000    9809.9904   -38008.575    274.23119 -0.092474261   -28198.584    265.54212   -2.3693223  0.011024836 0.0046473377   -2.3693525    184.03785    183.97055    1.8587479 
   40200       160800    9769.3875   -38025.814    273.09616  0.058573857   -28256.427    322.05082            0            0            0            0    183.95785    183.95895    1.6648375 
   40400       161600    9757.8111   -38166.975    272.77255 -0.0089093349   -28409.164    471.75473     1.094516 -0.005307231 -0.0016418772    1.0945301    183.87785    183.90952    1.7341221 
   40600       162400    9867.6277   -38119.054     275.8424  0.066491737   -28251.426    312.82664     1.193843 -0.0052073787 -0.0023581928    1.1938566    183.79785    183.83236    1.8201222 
   40800       163200    9880.5612   -37955.829    276.20394 -0.023438668   -28075.268    140.48384    1.6655514 -0.0068512769 -0.0026652786    1.6655676    183.71785    183.76584    2.0005384 
   41000       164000    9794.3244   -37961.508    273.79326  -0.11389255   -28167.183    235.93535   0.39577596 -0.0017897713 -0.0006788376   0.39578059    183.63785    183.64956    2.1397992 
   41200       164800    9775.8902   -37955.607    273.27794 -0.083311999   -28179.716    247.65533    2.8278033 -0.012764972 -0.005653114    2.8278378    183.55785    183.63904    2.2637049 
   41400       165600     9873.705   -37912.806    276.01228  0.059458723   -28039.101    103.80189    1.6481171 -0.0077313362 -0.0021509159    1.6481367    183.47785    183.52534    2.4841807 
   41600       166400    9833.1958   -38133.581    274.87988  0.035037365   -28300.385    363.50246    4.3908478 -0.018325571 -0.0034214673    4.3908873    183.39785     183.5237    2.7470273 
   41800       167200      9748.89   -37998.123    272.52317   0.12491759   -28249.233    313.27296    5.6599005 -0.027841481 -0.0085746019    5.6599755    183.31785    183.47996    3.1242818 
   42000       168000    9897.7213   -38034.263    276.68364   0.01228608   -28136.542    203.71202    4.2379925  -0.02009535 -0.0054131114    4.2380436    183.23785    183.35934    3.4814101 
   42200       168800     9981.135   -37946.078    279.01541  -0.02397535   -27964.943    33.239654    3.6390964 -0.018669199 -0.0036835265    3.6391462    183.15785    183.26223    3.8454809 
   42400       169600    9872.6332   -37986.609    275.98232  0.015816119   -28113.975    180.98077   0.35612179 -0.0019256361 -0.0001058766   0.35612701    183.07785    183.08842    3.9914452 
   42600       170400    9778.5201   -37984.852    273.35146 -0.011052857   -28206.332    271.87057    3.4006166 -0.017444632 -0.0024300107    3.4006622    182.99785    183.09541     4.057666 
   42800       171200    9719.9256   -38225.611    271.71349 -0.070208738   -28505.685    570.62423     1.439554 -0.0074362301 -0.00052140382    1.4395733    182.91785    182.95938     4.305794 
   43000       172000    9879.9403   -38099.414    276.18659  0.057651845   -28219.474    284.52402   -1.3266881 0.0068042039 0.00038943795   -1.3267056    182.83785    182.80034    4.3365581 
   43200       172800    9841.9598   -38034.808    275.12487  0.024064565   -28192.848    258.03335  -0.28380121 0.0013610615 5.8107369e-05  -0.28380448    182.75785    182.75014    4.1484683 
   43400       173600    9778.9181   -38192.951    273.36258 -0.066621296   -28414.033    481.34448   -1.5191858 0.0081835264 0.00076128684    -1.519208    182.67785    182.63484    4.1389101 
   43600       174400    9836.7667   -38143.726     274.9797 -0.040041339   -28306.959    373.95148   -3.2310044    0.0193758 0.0030734514    -3.231064    182.59785    182.50593    4.0140259 
   43800       175200    9866.9141    -38039.04    275.82245 -0.079904633   -28172.126    237.31467   -2.9576916  0.017036371 0.0021068312   -2.9577414    182.51785    182.43374    3.7125817 
   44000       176000    9921.6916    -37916.57    277.35371  0.082755644   -27994.878    59.403747    2.1606153 -0.013683933 -0.0018697941    2.1606594    182.43785    182.49998    3.7879704 
   44200       176800    9761.6765   -37950.243    272.88061 -0.027582838   -28188.566    255.04454    2.2141127 -0.014211519 -0.0021198735    2.2141593    182.35785    182.42151    3.9443138 
   44400       177600    9846.8109    -38062.15    275.26048  -0.14261609   -28215.339    285.00776  -0.73869782 0.0043951302 0.00057865116  -0.73871112    182.27785    182.25714    4.0567535 
   44600       178400    9809.1382   -37995.118    274.20737 -0.089124596    -28185.98     256.6079   0.93410405 -0.0052133779 -0.00073454208   0.93411889    182.19785    182.22494    4.1111078 
   44800       179200    9856.0033   -37985.536    275.51745  0.014480142   -28129.532    198.36097   -3.5227935  0.019710443 0.0028906073   -3.5228498    182.11785     182.0176    4.0920251 
   45000       180000    9839.6819   -37995.437    275.06119 -0.027168184   -28155.755    222.90392   -3.5398197  0.018989297 0.0022218824   -3.5398714    182.03785    181.93711    3.7699539 
   45200       180800    9793.4932     -37964.7    273.77002 -0.043251179   -28171.207    238.69012   -2.2805127  0.011517095 0.0019854845   -2.2805427    181.95785    181.89309    3.4733266 
   45400       181600    9900.8016   -38045.796    276.76975  -0.08927388   -28144.994    211.92467    1.5153592 -0.0074795164 -0.00076126997    1.5153779    181.87785    181.92155    3.4331894 
   45600       182400    9828.0367   -38188.874    274.73566 0.0006783104   -28360.838    425.79816    1.9809383 -0.011316459 -0.001655762    1.9809713    181.79785    181.85485    3.5983009 
   45800       183200    9800.5312   -38158.817    273.96676  0.040198429   -28358.286    422.23297    3.0176559 -0.018319271 -0.0035109834    3.0177136    181.71785    181.80447    3.8014779 
   46000       184000    9833.9441   -38259.263     274.9008 0.00052686609   -28425.318      491.953    0.8766796 -0.0050850578 -0.0006265235   0.87669457    181.63785     181.6633    3.9070749 
   46200       184800    9947.1823   -38123.742    278.06629  -0.13592582    -28176.56    245.32251  0.043390712 -0.00026736824 -3.2097339e-05  0.043391548    181.55785    181.55949    3.9636322 
   46400       185600     9621.615   -38161.472    268.96529 -0.082584706   -28539.857    608.89846    1.0081232 -0.0059144682 -0.0016090495    1.0081418    181.47785    181.50705    4.0847849 
   46600       186400    9875.0252   -38231.245    276.04919  -0.03736511    -28356.22    421.78132     -0.92671 0.0060929458 0.00094403919  -0.92673051    181.39785    181.37177    4.1667596 
   46800       187200    9808.8418   -38241.736    274.19908    0.1024491   -28432.894    496.76383   -1.3820668  0.010453099 0.00081449247   -1.3821065    181.31785    181.27876    4.0234334 
   47000       188000    9805.4155   -38065.347     274.1033 -0.023661746   -28259.931    326.56413   -2.2953914  0.014242038 0.00088115343   -2.2954358    181.23785    181.17267    3.9405674 
   47200       188800    9858.0367   -38106.582    275.57429  -0.21603975   -28248.545    317.60055  -0.64811751  0.004188095 9.2405687e-05  -0.64813105    181.15785    181.13973    3.8976671 
   47400       189600    9823.4379   -38040.705     274.6071  -0.18876534   -28217.267    286.87037  -0.63199001 0.0039358681 -0.00015447771  -0.63200229    181.07785    181.06019    3.8441355 
   47600       190400    9972.2456   -38141.117    278.76691  0.071709129   -28168.872    234.60642  -0.10102305 0.00060136565 -4.6300873e-05  -0.10102485    180.99785    180.99536    3.7328447 
   47800       191200    9778.1726   -38238.479    273.34174  0.042629353   -28460.306    523.29007    4.8489817  -0.02926978 0.0034554598    4.8490713    180.91785    181.05679    3.8513182 
   48000       192000      9740.72   -38242.416    272.29478    0.1156093   -28501.696    566.36691   -2.7370654  0.017919942 -0.00014200123   -2.7371241    180.83785    180.76005    3.9837894 
   48200       192800    9806.4858    -38090.52    274.13322 0.0088055906   -28284.034     350.9411   -3.3447881  0.020418233 0.0012653819   -3.3448507    180.75785    180.66268    3.8112866 
   48400       193600    9745.9795   -38070.849    272.44181  -0.16465879    -28324.87    393.36224  -0.73533127 0.0052560282 0.00019454831  -0.73535008    180.67785    180.65724    3.7022337 
   48600       194400     9847.376   -38056.209    275.27627 -0.069820898   -28208.833    277.08546  -0.41897569 0.0029982009 9.0024586e-05  -0.41898643    180.59785    180.58628    3.6253946 
   48800       195200    9847.0614   -38163.457    275.26748 -0.055337382   -28316.396    381.59057   0.17294685 -0.0011367635 -3.5596999e-06   0.17295059    180.51785    180.52319    3.5730648 
   49000       196000    9672.6782   -38160.779    270.39273   0.07445437   -28488.101    550.03071   -2.7844348  0.017293538 0.00088387238   -2.7844886    180.43785    180.35869    3.4556747 
   49200       196800    9930.0235    -38167.54    277.58663  0.025662121   -28237.517    300.16478   -4.0149114  0.024018566 -0.0010222463   -4.0149834    180.35785    180.24354    3.1998265 
   49400       197600    9858.3809   -38153.797    275.58391 0.0060444732   -28295.416    360.78593    3.0956892 -0.020368564 0.00041649846    3.0957562    180.27785     180.3667    3.2296053 
   49600       198400    9786.9607   -38102.097    273.58741 -0.090522271   -28315.136    381.11113    4.4230983 -0.027897074  0.002444522    4.4231869    180.19785    180.32463    3.5246515 
   49800       199200    9774.5429   -38173.992    273.24028  0.058773319   -28399.449    465.43575    4.2523049 -0.026852643 0.0022207741    4.2523903    180.11785    180.23975    3.8953381 
   50000       200000    9867.7816   -38109.365     275.8467  -0.15109963   -28241.583    307.30702    7.2938246 -0.046283975 0.00057764802    7.2939715    180.03785    180.24665    4.2150585 
   50200       200800    9902.6849   -38043.994     276.8224 -0.044632905   -28141.309    209.18899    4.0350198 -0.024772823 3.0846898e-05    4.0350959    179.95785    180.07354    4.6674851 
   50400       201600    9754.6469    -38019.75     272.6841 -0.052227135   -28265.103    333.24381    2.5360882 -0.016454951 -0.00076458828    2.5361417    179.87785    179.95071    5.0512705 
   50600       202400    9811.8326   -37974.414    274.28269  0.053814405   -28162.582    229.86519    6.6082632 -0.042460034 0.0029591265    6.6084003    179.79785    179.98706    5.3601217 
   50800       203200    9923.4733   -38153.359    277.40352  0.041013579   -28229.885    298.50792  -0.55219557 0.0034825645 -0.00014844009  -0.55220657    179.71785    179.70247    5.6287589 
   51000       204000    9839.2645   -38070.516    275.04952  0.051785739   -28231.251    299.44308   -3.9738549  0.027062229 -0.0014048454   -3.9739473    179.63785    179.52471    5.3216685 
   51200       204800    9804.2572   -37958.523    274.07092  0.012512883   -28154.266     222.6068   -2.8051037  0.017649953 0.00052214934   -2.8051593    179.55785     179.4781    4.8327349 
   51400       205600    9690.2454   -38092.305     270.8838 -0.050931676    -28402.06    470.98635   -7.6840601  0.046122303 0.00078667237   -7.6841985    179.47785     179.2587    4.4725193 
   51600       206400    9847.8493   -38142.188    275.28951 -0.060786307   -28294.339    357.92666    -10.42582  0.074425675 0.0077673653   -10.426089    179.39785    179.10036    3.7563261 
   51800       207200     9953.492   -38240.088    278.24267   0.15255343   -28286.596    348.71648   -7.5108578  0.053994211   0.01108095     -7.51106    179.31785    179.10365    3.1268461 
   52000       208000    9660.1894   -38013.213    270.04361   0.05923913   -28353.023    416.52065   -5.3442444  0.037693828 0.0026868129    -5.344378    179.23785    179.08555    2.5669681 
   52200       208800    9642.7702   -38049.979    269.55667 -0.020724296   -28407.209    473.00898   -1.5517648  0.010681117 0.00081948673   -1.5518017    179.15785    179.11391     2.206599 
   52400       209600    9745.2474   -38114.748    272.42134  -0.13134701   -28369.501    436.09675   0.97795679 -0.0067029863 -0.00041746402   0.97797985    179.07785    179.10619    2.2136941 
   52600       210400    9793.2099   -38044.867     273.7621  0.062204817   -28251.657    315.64731  -0.35140092 0.0026165126 0.00017588374  -0.35141071    178.99785    178.98821    2.3754218 
   52800       211200    9850.1181   -38032.938    275.35293  0.093194666    -28182.82    244.57795    1.2575233 -0.008229284 -0.00089026331    1.2575505    178.91785    178.95418      2.45555 
   53000       212000    9936.3231   -38076.518    277.76273   0.03315295   -28140.195    202.27203   0.78081562 -0.005042573 -7.9563343e-05   0.78083191    178.83785    178.86056     2.537227 
   53200       212800    9999.4267   -38087.719    279.52674 -0.094450422   -28088.292    152.91514  -0.78221902 0.0048393194 -0.00030301762  -0.78223405    178.75785     178.7359    2.4390115 
   53400       213600    9868.9789    -38131.09    275.88017  -0.10530066   -28262.111    327.28341   -4.3944694  0.026379452 0.00079055681   -4.3945486    178.67785    178.55269    2.2390552 
   53600       214400    9685.8223   -38218.779    270.76016 -0.022519384   -28532.956     596.1054   -3.7996942    0.0237491 -0.00040789092   -3.7997684    178.59785    178.48968    1.9799851 
   53800       215200    9843.1489   -38192.341    275.15811    0.0281285   -28349.193    411.34331   0.36616001 -0.0022206725 0.00011096932   0.36616676    178.51785    178.52871     1.946343 
   54000       216000    9920.3654   -37976.995    277.31664  0.039786084    -28056.63    119.86987    5.1312499 -0.033298282 0.00043397466     5.131358    178.43785    178.58486    2.0236191 
   54200       216800    9796.5941   -38086.837     273.8567 -0.070098998   -28290.243    356.01891    5.9095638 -0.041706266 -0.0015565702    5.9097112    178.35785     178.5271    2.4567504 
   54400       217600    9843.6995   -38093.957     275.1735 -0.0039761917   -28250.257    318.00375    2.9267304 -0.021953716 -0.0012199565     2.926813    178.27785    178.36187    2.7146736 
   54600       218400    9807.6854   -38184.569    274.16675 -0.0053600681   -28376.883    442.37953   -1.0605953 0.0081001012 0.00041668938   -1.0606263    178.19785    178.16795    2.7508127 
   54800       219200    9842.1999    -37925.34    275.13158   0.16356208    -28083.14    147.81062   0.55957223 -0.0043270285 -0.00018476966   0.55958899    178.11785    178.13424     2.772831 
   55000       220000    9792.0081   -38018.673    273.72851 -0.025374651   -28226.665    291.25306  -0.32279309 0.0023596689 0.00017262619  -0.32280176    178.03785    178.02903    2.8536508 
   55200       220800    9855.0652   -38110.395    275.49122 -0.052573182    -28255.33    320.63976  -0.84856266 0.0066710458 0.0011697531  -0.84858969    177.95785      177.934    2.6888838 
   55400       221600    9699.5915   -38113.809    271.14507  0.062074079   -28414.217    478.86639   0.12743202 -0.00094814776 -0.0002834172   0.12743587    177.87785    177.88189    2.6398061 
   55600       222400    9828.9859   -38120.423    274.76219 -0.041262385   -28291.438    357.83137   0.68170651 -0.0048384965 -0.0011919969   0.68172472    177.79785    177.81773    2.8250727 
   55800       223200    9693.3882   -38064.656    270.97166 -0.086568238   -28371.268    438.40007  -0.83249121 0.0058049187  0.001888588   -0.8325136    177.71785    177.69446    2.7323109 
   56000       224000    9850.0964   -37895.431    275.35232  0.029059659   -28045.335    112.43296    4.2231394 -0.024401142 -0.010935512    4.2232241    177.63785    177.75891    2.7215596 
   56200       224800    9797.1462   -37937.234    273.87214  0.040537123   -28140.087    206.28004    5.3090592 -0.028964211 -0.015897766     5.309162    177.55785    177.70994    3.1188064 
   56400       225600    9753.4135   -38063.872    272.64962  0.040222016   -28310.458    377.17617    4.5233747 -0.025367197 -0.0084339116    4.5234536    177.47785    177.60749    3.4319436 
   56600       226400    9854.3308   -38197.609    275.47069 -0.0070419972   -28343.278    409.22788    3.9683139 -0.022857342 -0.0080759569    3.9683879    177.39785    177.51163    3.7919499 
   56800       227200    9821.5479   -38090.335    274.55427  0.011928706   -28268.787    336.16201     4.292909 -0.026521502 -0.0096283039    4.2930017    177.31785    177.44091     4.200252 
   57000       228000    9847.3074   -38120.456    275.27436  0.039318438   -28273.148     341.3979    6.5987779 -0.046585049 -0.008049926    6.5989472    177.23785    177.42679    4.6168551 
   57200       228800     9842.269   -38048.237    275.13351  -0.14010516   -28205.968    274.09541    8.4193211 -0.061320161 -0.014985336    8.4195577    177.15785    177.39881    5.1481469 
   57400       229600    9821.3712   -38057.157    274.54933  0.014346803   -28235.786    303.73742    3.7030659 -0.028150219 -0.0043215673    3.7031755    177.07785    177.18405    5.6421266 
   57600       230400      9815.58   -38232.973    274.38744  0.014556601   -28417.393    482.89504   0.78075009 -0.0057671004 -0.0012367955   0.78077237    176.99785    177.02056    5.8427739 
   57800       231200    9694.8033   -38240.504    271.01122  0.074940424     -28545.7    610.10242  -0.74964143 0.0054924472  0.001536967  -0.74966312    176.91785    176.89683    5.8908665 
   58000       232000    9919.5343   -38215.591    277.29341   0.07642043   -28296.057    363.29387   -2.6607242  0.021251415 0.0038945023   -2.6608119    176.83785    176.76223    5.7401255 
   58200       232800    9805.3996   -38086.416    274.10286 -0.085671793   -28281.016    351.40819    1.9466661 -0.016463463 -0.0037486336    1.9467393    176.75785    176.81387    5.7333447 
   58400       233600    9976.3079   -38037.433    278.88047 -0.052089813   -28061.125    131.58665   -2.5814794  0.022481297 0.0045655357   -2.5815813    176.67785    176.60449    5.7322883 
   58600       234400    9806.7589   -38217.226    274.14085 -0.037898144   -28410.468    475.02115   -8.6965459  0.076993162  0.015213658      -8.6969    176.59785    176.34977    5.1496079 
   58800       235200    9840.4002   -38263.835    275.08127   0.14509126   -28423.434    485.90961   -8.4157827  0.073160928  0.011286811   -8.4161083    176.51785    176.27779    4.4547013 
   59000       236000    9738.1444   -38316.255    272.22278  -0.12848829   -28578.111    641.73171   -8.5855601  0.076361891 0.0097112816   -8.5859052    176.43785    176.19294    3.7231418 
   59200       236800    9871.9753   -38098.248    275.96393 -0.080367647   -28226.273     292.2853   -5.7538976  0.049661061 0.0064329032   -5.7541155    176.35785    176.19385    3.2444899 
   59400       237600    9865.9758   -37978.593    275.79622  -0.11960122   -28112.617    178.86757   -9.7463393  0.088093995 0.0077828275   -9.7467405    176.27785    175.99977    2.6935182 
   59600       238400    9920.4062   -38091.468    277.31778  0.028050193   -28171.062    235.22624   -11.043835  0.093754418 0.0059989684   -11.044234    176.19785     175.8827    1.9201221 
   59800       239200    10003.123   -38059.259    279.63008 -0.038119558   -28056.135    121.17297   -8.3502946  0.076818396 0.0062333245   -8.3506503    176.11785    175.87966    1.1388385 
   60000       240000    9780.6777   -38075.334    273.41177 -0.062651946   -28294.656    358.34832   -6.7440549  0.057781002 0.0072020712   -6.7443063    176.03785    175.84555   0.49479081 
   60200       240800    9742.7983   -38115.773    272.35288 -0.047525376   -28372.974    436.26997   -5.4948564  0.046676336 0.0027941111   -5.4950553    175.95785    175.80125 -0.038043338 
   60400       241600     9957.325   -38203.001    278.34982 0.0085616253   -28245.676    307.65814   -5.8357577  0.050580153 0.0043664215   -5.8359785    175.87785    175.71151  -0.46901613 
   60600       242400     9790.211   -38178.511    273.67827 -0.036393557     -28388.3    449.56877  -0.92222675 0.0076208471 0.00062763737  -0.92225845    175.79785     175.7719  -0.73800149 
   60800       243200    9893.9266     -38146.6    276.57756  0.038402595   -28252.673    312.40014    5.7275934 -0.048231136 -0.0063552816       5.7278    175.71785     175.8819  -0.60683681 
   61000       244000    9823.9377    -38017.88    274.62108  0.026618025   -28193.943    255.30449    8.1276314 -0.070365783 -0.014369109    8.1279487    175.63785    175.87048 -0.022931061 
   61200       244800    9820.3667   -38046.985    274.52125 -0.046153728   -28226.618    291.10506    11.030236 -0.087025015 -0.016311345    11.030591    175.55785    175.87341   0.77613001 
   61400       245600    9821.6249   -38111.955    274.55642 -0.011828744    -28290.33    357.60049    6.5371201 -0.053482418 -0.0098370745    6.5373463    175.47785    175.66503     1.527481 
   61600       246400    9826.2287   -38168.472    274.68512 -0.072794408   -28342.243    407.43278    7.1150816 -0.050538737 -0.0074962348     7.115265    175.39785    175.60154    2.0381868 
   61800       247200    9933.7039   -38322.839    277.68951   0.10018496   -28389.136    449.42901    7.1133994 -0.052754423 -0.006714198    7.1135982    175.31785     175.5215    2.5862586 
   62000       248000    9750.3056   -38282.754    272.56274  0.095912369   -28532.448    591.63967    5.7826191 -0.045296851 -0.0050639652    5.7827987    175.23785    175.40347    2.9956797 
   62200       248800    9939.0272   -38219.905    277.83832 0.0077563511   -28280.878    346.24242    3.4329095 -0.023303046 0.00013445785    3.4329886    175.15785    175.25633    3.4661174 
   62400       249600    9979.6948   -38145.103    278.97515  -0.14554455   -28165.408    235.03457 -0.054951938 0.00035985283 -6.7990038e-06 -0.054953116    175.07785    175.07668    3.7374606 
   62600       250400    9829.5109   -38102.029    274.77687 -0.077122396   -28272.518    341.48186    1.7524288 -0.011437637 -0.00017348575    1.7524661    174.99785    175.04832    3.7316604 
   62800       251200    9840.5315   -38243.482    275.08494  0.014776711    -28402.95    468.89914    3.5948145 -0.024573741 -0.0033962501    3.5949001    174.91785    175.02096    3.9821631 
   63000       252000    9848.3921   -38096.693    275.30468  0.043138664   -28248.301    311.39503    7.1005467 -0.045659035 -0.010098596    7.1007007    174.83785    175.04113    4.3247432 
   63200       252800    9854.8648   -38238.523    275.48562  0.092685832   -28383.658    449.19348    1.4634482 -0.010003377 -0.0018779435    1.4634836    174.75785    174.80006    4.7184106 
   63400       253600    9773.4313   -38336.027     273.2092  -0.12762114   -28562.596    630.89489    1.6947387  -0.01083418 -0.0027195823    1.6947755    174.67785    174.72667    4.8710904 
   63600       254400     9799.032   -38063.422    273.92485 -0.013255847    -28264.39     333.2854    2.1719413  -0.01489573 -0.0037860717    2.1719957    174.59785    174.66031    5.0559057 
   63800       255200    9744.7916   -38273.101     272.4086 -0.027535412   -28528.309    595.85261  -0.75120976 0.0051682846 0.0007681568  -0.75122793    174.51785    174.49679    5.0510274 
   64000       256000    9845.0252   -38251.539    275.21056  0.030269712   -28406.514    472.62294   -1.1788784 0.0086945526 0.00081067419   -1.1789108    174.43785    174.40457    5.0046071 
   64200       256800    9801.2984   -38287.117    273.98821 -0.014340706   -28485.818     551.1172   -2.4189989  0.017424231 0.00072005529   -2.4190618    174.35785    174.28913    4.9088825 
   64400       257600    9892.6783   -38170.468    276.54267  0.021767142    -28277.79    344.03733   -2.3549619  0.017216202 2.0100112e-05   -2.3550248    174.27785    174.21096    4.7681751 
   64600       258400    9834.7325   -38103.844    274.92284 -0.024661749   -28269.111    336.43782   -2.3354081  0.017236511 0.0010885853    -2.335472    174.19785    174.13152    4.5218778 
   64800       259200    10047.978   -37940.105    280.88396 -0.040076713   -27892.127   -39.796115    -0.670816 0.0054654753 0.00061224255  -0.67083855    174.11785    174.09908    4.3592109 
   65000       260000     9895.975   -38164.412    276.63482 -0.046758674   -28268.437    334.35445   -4.5087216  0.036798177 0.0034270784   -4.5088731    174.03785    173.90942    4.1660846 
   65200       260800    9901.6159   -38156.655    276.79251    0.1433991   -28255.039    319.57502   -3.2547742   0.02583125 0.0015326445    -3.254877    173.95785    173.86525    3.8180824 
   65400       261600    9857.6371   -38221.377    275.56312 -0.011600811    -28363.74    428.72558    1.5050968 -0.011293374 -0.00061954193    1.5051392    173.87785    173.92125    3.7716039 
   65600       262400    9870.1649   -38196.179    275.91332 -0.024110279   -28326.014    392.40519    1.7961014  -0.01377854 0.00052324536    1.7961543    173.79785    173.84957    3.8609496 
   65800       263200    9881.8022    -38215.27    276.23863  -0.04336641   -28333.467    400.15405   -2.1551885  0.016810721 0.0014375159   -2.1552545    173.71785    173.65667    3.7628367 
   66000       264000    9813.9779   -38100.302    274.34265   0.01653136   -28286.325    352.23464    2.7207122 -0.021937226 -0.0030795863    2.7208024    173.63785    173.71599     3.790277 
   66200       264800    9914.4922    -38229.77    277.15246  -0.01496859   -28315.278    381.16532    2.0915132 -0.018637872 -0.0030146689    2.0915984    173.55785    173.61801    4.0158367 
   66400       265600    9726.7967   -38258.165    271.90557  0.026378392   -28531.368    596.95532   -1.3065918  0.011082781 0.0022197184   -1.3066406    173.47785    173.44092    4.0415937 
   66600       266400    9699.7932   -38102.151    271.15071  0.059872215   -28402.358    467.19823    -3.756765  0.032256255 0.0090095673   -3.7569143    173.39785    173.29091    3.8433408 
   66800       267200    9732.7626   -38259.058    272.07234   0.18426897   -28526.296    592.49772   -4.0146551  0.037700914 0.0097646909    -4.014844    173.31785    173.20354    3.4979987 
   67000       268000    9810.2441   -38166.931    274.23828  0.011466724   -28356.687    422.38218   -1.3108985  0.012514836 0.0027532279   -1.3109611    173.23785    173.20079    3.2637001 
   67200       268800    9933.5983   -38247.579    277.68656   0.11242209   -28313.981    379.34257   -3.2336002  0.030317091 0.0071232549   -3.2337501    173.15785    173.06586    3.1366522 
   67400       269600    9838.0299   -38094.748    275.01501 0.0043019924   -28256.718     322.2637   -1.1894542  0.012305333 0.0027434832    -1.189521    173.07785    173.04426    2.9333323 
   67600       270400     9697.971   -38214.531    271.09977 -0.086606935    -28516.56    581.12197  -0.45061535 0.0045901572 0.0010220832  -0.45063988    172.99785    172.98537    2.7902664 
   67800       271200    9833.3736   -38070.797    274.88485  0.079849343   -28237.424     301.6467   -2.2502694  0.022151019 0.0052515573   -2.2503845    172.91785    172.85395    2.6954932 
   68000       272000    9815.8495   -38241.861    274.39498 -0.059095672   -28426.011    490.03472  -0.15583051 0.0015832824 0.00040445086  -0.15583908    172.83785     172.8338    2.5318946 
   68200       272800    9916.5682   -38243.469    277.21049 -0.077261969   -28326.901    390.53532 -0.095368954 0.00093595846 0.00019291403 -0.095373742    172.75785    172.75552    2.5542542 
   68400       273600    9864.4932   -38337.324    275.75477  0.030295961   -28472.831    533.70876     3.776335  -0.03745934 -0.0070628272    3.7765274    172.67785    172.78615    2.7055425 
   68600       274400    9880.3121   -38207.341    276.19698   0.22518681   -28327.029    387.13162    1.7191776 -0.014430838 -0.0030382728    1.7192408    172.59785    172.64737    2.8940687 
   68800       275200    9941.3352   -38131.457    277.90284 -0.062190326   -28190.122    254.41319    5.2238137 -0.046127688 -0.010752231    5.2240284    172.51785    172.66751    3.1702351 
   69000       276000    9726.5642   -38060.455    271.89907  -0.15243459   -28333.891    403.30626    3.2285169 -0.027181573 -0.0062128774    3.2286373    172.43785     172.5305    3.3979504 
   69200       276800    9870.0253   -38207.241    275.90942  -0.13012109   -28337.216    404.78237    4.8133401 -0.041929397 -0.0069634938    4.8135278    172.35785    172.49578    3.7090934 
   69400       277600    9823.7829   -38288.518    274.61675 -0.047658078   -28464.735    527.54333  -0.10167091 0.00094489883 0.00020037829   -0.1016755    172.27785    172.27534     3.955055 
   69600       278400    9931.5212   -38386.004    277.62849   0.11409613   -28454.483    513.09328    -2.749105  0.026846521 0.0045341238   -2.7492398    172.19785     172.1197     3.891695 
   69800       279200    9848.0386   -38288.332     275.2948  0.061441676   -28440.294    503.11497  -0.13076386 0.0012159549 0.00038500532  -0.13077008    172.11785    172.11451    3.7496273 
   70000       280000    9725.7831   -38093.493    271.87723 0.00071033076    -28367.71    436.24152     5.873763 -0.056559668 -0.022936955    5.8740801    172.03785    172.20608    3.8500468 
   70200       280800    9897.4666   -38156.177    276.67652  -0.12040709    -28258.71    327.70523    4.8716953 -0.048479703 -0.017497087     4.871968    171.95785    172.09745      4.31966 
   70400       281600    9830.4903   -37982.573    274.80425  0.019989799   -28152.083    219.30508   -3.2267396  0.032578607  0.013002882   -3.2269303    171.87785    171.78605    4.4032308 
   70600       282400     9866.299   -38294.804    275.80525  0.020678613   -28428.505    491.67248   -4.0359977  0.040059592  0.013245774   -4.0362183    171.79785    171.68293    4.1753359 
   70800       283200    9705.3051   -38184.851    271.30479   0.10443254   -28479.546    540.72656     1.137119  -0.01199287 -0.0034867562    1.1371876    171.71785    171.75074    4.0943972 
   71000       284000    9851.4739    -38203.83    275.39083  0.026583463   -28352.356    416.83058     1.824716   -0.0199245 -0.0050386101    1.8248318    171.63785    171.69039    4.2136811 
   71200       284800    9724.9247   -38075.712    271.85324 -0.056608557   -28350.787    418.65491    1.8919801 -0.019129891 -0.0030995527    1.8920794    171.55785    171.61231    4.2599308 
   71400       285600    9868.0541   -38044.575    275.85432  0.068544638   -28176.521    243.71168    3.2102627 -0.035751196 -0.0055036478    3.2104665    171.47785    171.56998    4.3649672 
   71600       286400    9934.0786   -38209.413    277.69998  0.059933578   -28275.335     341.0347    3.9400448 -0.038897948 -0.0057230669     3.940241    171.39785    171.51083    4.7348836 
   71800       287200    9845.5683   -38115.836    275.22574 -0.011323954   -28270.267    335.47764    4.6066418 -0.047690606 -0.0074511912    4.6068947    171.31785    171.44988    5.1832156 
   72000       288000    9782.7696   -38265.028    273.47025 -0.043139347   -28482.258    549.87487    3.1897269 -0.036057292 -0.0051205171    3.1899348    171.23785    171.32939    5.5298961 
   72200       288800    9820.0236   -38200.965    274.51166 -0.084672407   -28380.942    451.30115   -2.3651637  0.023578415 0.0060201632   -2.3652889    171.15785    171.09067    5.5742166 
   72400       289600    9824.5871   -38061.453    274.63923 -0.040802733   -28236.866    306.69311   -3.8317033   0.03984312  0.010925356    -3.831926    171.07785    170.96877    5.2262974 
   72600       290400    9813.8353   -38082.281    274.33867 -0.043829482   -28268.446     335.9464    -7.020574  0.076542523  0.022385272    -7.021027    170.99785    170.79765    4.8444607 
   72800       291200    9957.4034   -38004.863    278.35201  0.093228334    -28047.46    112.05707   -10.150329   0.10761742  0.035437663   -10.150962    170.91785    170.62822    4.2543093 
   73000       292000    9798.4533     -38126.6    273.90868 -0.066087493   -28328.147    392.82049   -5.6797446  0.064696211  0.019452018   -5.6801464    170.83785    170.67596    3.5412355 
   73200       292800    9774.5286   -38069.016    273.23988 -0.085795902   -28294.487    362.27548   -1.8041427   0.02148488 0.0054701105    -1.804279    170.75785     170.7067    3.2353983 
   73400       293600    9727.2928   -38105.579    271.91944  -0.12028098   -28378.286    444.76112    1.4464578 -0.017321799 -0.0027671849    1.4465642    170.67785    170.71958    3.1914488 
   73600       294400    9842.1228   -38099.224    275.12943 -0.026652847   -28257.101    323.10478    2.6770662 -0.030480461 -0.0064015081    2.6772473    170.59785    170.67474    3.4749072 
   73800       295200    9839.3494   -38337.116     275.0519  0.042308626   -28497.767    561.56677            0            0            0            0    170.51785    170.51879    3.5724007 
   74000       296000    9809.9638    -38220.02    274.23044  0.060703844   -28410.056     474.0595    3.2121507 -0.034591508 -0.011339559     3.212357    170.43785    170.53003    3.6637616 
   74200       296800    9849.2787    -38116.79    275.32947 -0.040387263   -28267.511    333.44912   0.65017473 -0.0073637687 -0.0022079044   0.65022018    170.35785    170.37683    3.8314775 
   74400       297600      9863.43    -38083.05    275.72505 -0.023538298    -28219.62    287.31237   -3.0070703  0.035142252  0.012624027   -3.0073021    170.27785    170.19233     3.708507 
   74600       298400    9997.7499   -38174.911    279.47987 -0.008460976   -28177.161     243.1163   -2.8973974   0.03529421  0.011407327   -2.8976348    170.19785    170.11546    3.4820418 
   74800       299200    9822.0841   -38129.869    274.56926  0.053955406   -28307.785    371.97027   -4.7262473  0.058467728  0.021686033   -4.7266587    170.11785     169.9832    3.2017282 
   75000       300000    9874.8021    -38082.18    276.04295 -0.0045867434   -28207.378    272.80084   -4.2505527  0.051249156  0.018199585   -4.2509006    170.03785     169.9168    2.8024868 
   75200       300800    9984.8247   -38127.772    279.11855  -0.10018046   -28142.948    207.49703   -2.6813318  0.032183561  0.011090022   -2.6815479    169.95785    169.88163     2.541982 
   75400       301600     9905.872    -38160.19    276.91149  0.087277587   -28254.318    317.64716   -2.9167501  0.034017774  0.013437232   -2.9169794    169.87785    169.79491    2.2480969 
   75600       302400    9841.5819    -38185.16     275.1143  0.077425899   -28343.578    406.09466  -0.98877388  0.011430266 0.0044291634  -0.98884986    169.79785       169.77    1.9865918 
[...]
  380800      1523200    9841.0576   -38088.292    275.09965   0.65635592   -28247.234    4851.8124    404.34075   -17.030381   -1.7494276    404.70302    47.717849    59.281193    6987.0181 
  381000      1524000    9780.5429   -37941.629      273.408   0.69317436   -28161.087    4801.2517    404.05964   -16.362707   -1.1611401    404.39248    47.637849     59.19232    7019.3582 
  381200      1524800    9871.0168   -37986.498    275.93714   0.54414132   -28115.481    4756.2697    406.87888   -16.655319   -1.4307641    407.22214    47.557849    59.193168    7051.9025 
  381400      1525600    9914.0577   -37983.806    277.14031   0.50962055   -28069.748    4703.1996    410.45704   -16.065672   -1.3087927    410.77342    47.477849    59.214633    7084.6643 
  381600      1526400    9764.4726   -38126.014    272.95877   0.47156064   -28361.541    4974.0265    415.10906   -15.667975    -2.141418    415.41016    47.397849    59.267111    7117.7502 
  381800      1527200    9728.4151   -37992.256    271.95081   0.62782533   -28263.841    4891.1736    416.49722   -15.574584   -1.5113767    416.79106    47.317849    59.226565     7151.087 
  382000      1528000    10020.022   -38081.276    280.10246   0.62721929   -28061.255    4719.8512    416.62497   -17.338953    -1.281183    416.98758    47.237849     59.15218    7184.3562 
  382200      1528800    9913.1748   -38115.974    277.11563   0.65832971     -28202.8    4850.8058    420.30278   -17.670885   -1.5886338    420.67708    47.157849    59.177595    7217.8559 
  382400      1529600     9944.664   -37889.323    277.99589   0.58344289   -27944.659    4660.7527    417.40976   -18.156287   -2.0213376    417.80934    47.077849    59.015659    7251.3799 
  382600      1530400    9923.9086   -37933.799    277.41569   0.54493112   -28009.891    4781.2302    415.68449   -17.891682   -2.0044049    416.07418    46.997849    58.886083    7284.7159 
  382800      1531200    9907.3736   -37852.982    276.95346   0.58027685   -27945.608    4727.5619    417.63892   -18.446446   -2.1389029    418.05156    46.917849     58.86258    7318.0348 
  383000      1532000    9864.0927    -37799.13    275.74358   0.57225884   -27935.038    4698.5783    421.98379   -18.099576   -2.4963133    422.37915    46.837849    58.906225    7351.6092 
  383200      1532800    9824.7493   -37964.138    274.64376   0.49978504   -28139.389     4934.411    422.27807   -17.833847   -2.9848869    422.66503    46.757849    58.834393     7385.425 
  383400      1533600    9879.3277   -37890.823    276.16946   0.41517933   -28011.495    4786.0494     426.9497   -18.238501   -2.5481624    427.34668    46.677849    58.888154    7419.4227 
  383600      1534400    9725.6248   -37851.026    271.87281   0.53464652   -28125.401    4840.4406    434.39163   -18.097079   -2.5805796     434.7761    46.597849    59.020424    7453.8973 
  383800      1535200    9954.7454    -38085.08    278.27771    0.5847665   -28130.335    4899.6902    432.54961    -17.61916   -2.0511502    432.91316    46.517849    58.887197    7488.6136 
  384000      1536000    9763.4025   -38026.371    272.92886   0.63228486   -28262.968    5135.4958    426.86323   -17.863362   -1.5665978    427.23971    46.437849    58.645098    7522.9854 
  384200      1536800    9875.0955   -38014.766    276.05115   0.53748085   -28139.671     5016.557    429.46265    -17.43435   -1.5947913    429.81935    46.357849    58.638802    7557.3442 
  384400      1537600     9845.095   -37803.068    275.21251   0.57996207   -27957.973    4833.3735    432.62556   -16.902322   -1.9687055    432.96009    46.277849    58.648538    7591.7808 
  384600      1538400    9829.2334    -37899.67    274.76911   0.41055151   -28070.437    4955.6173    434.56984   -17.829155   -1.1439736    434.93693    46.197849    58.625019    7626.4575 
  384800      1539200     9963.755   -37803.076    278.52957   0.63655695   -27839.321    4782.4664    432.70061   -17.072094   -1.0507687    433.03854    46.117849    58.490779     7661.182 
  385000      1540000    9834.8615   -37801.185    274.92644   0.62104331   -27966.324    4922.0714    434.25803   -17.417312   -1.2591654      434.609    46.037849     58.45565    7695.9468 
  385200      1540800    9984.6474    -37769.93     279.1136   0.74035584   -27785.283    4731.5234    437.75211   -16.593424  -0.62521926    438.06694    45.957849    58.474448    7730.8069 
  385400      1541600    9700.6793   -37723.716    271.17547   0.54687666   -28023.037    5009.3447    437.28088   -16.936291  -0.44099882    437.60896    45.877849    58.381363    7765.7064 
  385600      1542400    9826.3596   -38081.794    274.68878   0.60649477   -28255.434    5253.4216     439.0217   -18.004605  0.084779261    439.39074    45.797849    58.352271    7800.7627 
  385800      1543200      9780.05   -37802.383    273.39422   0.58423443   -28022.333    5081.0218    437.07342   -18.184029  -0.92579906     437.4525    45.717849    58.216892    7835.7851 
  386000      1544000    9862.6464   -37785.097    275.70315   0.67732623   -27922.451    4996.5544    438.75581   -17.463873  -0.99520704    439.10436    45.637849    58.184088    7870.8961 
  386200      1544800    9766.8589   -37930.643    273.02548   0.46927268   -28163.784    5208.6722    443.90911   -16.930912  -0.77212473    444.23254    45.557849    58.250608    7906.3284 
  386400      1545600    9837.1397   -37878.302    274.99013   0.54119989   -28041.162    5080.3705    447.12885   -17.132252   -1.0071872    447.45808    45.477849    58.262766    7941.9033 
  386600      1546400    9692.4224   -37877.234    270.94466   0.56473485   -28184.812    5216.6689    450.36228   -18.333839   -1.2604849    450.73706    45.397849    58.276451    7977.9293 
  386800      1547200    9877.4581   -37872.145     276.1172   0.59277287   -27994.687     5011.054    454.32586   -19.483543    -1.254987    454.74517    45.317849    58.310969    8014.1798 
  387000      1548000    9855.4246   -37832.624    275.50127   0.61887011   -27977.199      5042.37    453.43379   -18.842108   -1.3330808    453.82707    45.237849    58.204737    8050.5386 
  387200      1548800    9814.6112   -37725.588    274.36036   0.54167266   -27910.977    4981.6414    455.83512   -18.797888   -1.3158889    456.22445    45.157849    58.193234    8086.8732 
  387400      1549600    9870.8324   -37571.201    275.93198   0.61586654   -27700.368    4847.3179     452.8259   -18.651846   -1.2715305    453.21165    45.077849    58.027154    8123.3061 
  387600      1550400    9897.8538   -37733.985    276.68735    0.6043362   -27836.131    4996.4583    454.39503   -19.274843    -1.476388    454.80605    44.997849    57.992708    8159.5803 
  387800      1551200    9748.2937   -37960.942     272.5065   0.67503413   -28212.648    5398.1147    455.13302   -19.121178   -1.3734195    455.53658    44.917849     57.93358    8195.9281 
  388000      1552000    9759.4293   -37825.563    272.81779   0.68468753   -28066.134    5268.5229    456.61394   -19.033925  -0.90073706    457.01137    44.837849    57.895717    8232.5746 
  388200      1552800     9785.222   -37740.101     273.5388   0.64447705   -27954.879    5196.4053     456.3104   -19.820488   -1.2940607     456.7425    44.757849    57.808035    8269.0677 
  388400      1553600     9767.788   -37891.041    273.05145   0.61816001   -28123.253    5393.6291    457.20291   -19.143379   -1.9521471    457.60767    44.677849    57.752754    8305.5781 
  388600      1554400    9809.3242   -37692.897    274.21256   0.57599676   -27883.573    5108.9718    463.50669    -19.22575   -2.2474279    463.91069    44.597849    57.852841    8342.4159 
  388800      1555200    9787.5955    -37772.71    273.60515   0.54997499   -27985.115    5252.8561      463.048   -18.154548   -1.6574532    463.40672    44.517849    57.758441    8379.5526 
  389000      1556000     9906.687   -37705.632    276.93427   0.58528807   -27798.945    5158.3573    458.76366   -18.240565   -1.7389772    459.12944    44.437849    57.556233    8416.4736 
  389200      1556800    9670.2337   -37790.526    270.32439   0.72603741   -28120.292    5405.8312    466.88062    -17.82506   -1.8169494     467.2243    44.357849    57.707515    8453.5496 
  389400      1557600    9931.3917   -37703.619    277.62487   0.70776145   -27772.227    5071.6838    468.80658   -18.251781  -0.48837772    469.16199    44.277849    57.682878    8491.0618 
  389600      1558400    9926.9768   -37667.332    277.50146   0.55412866   -27740.356     5061.813     470.3089   -18.868696   -1.1322848    470.68861    44.197849    57.646495    8528.7403 
  389800      1559200    9860.0282   -37614.956    275.62996   0.49926603   -27754.928    5035.9906    476.25894   -18.098318    -1.312955     476.6045    44.117849    57.735521    8566.5625 
  390000      1560000    9997.6526   -37601.566    279.47715   0.63653113   -27603.913    4954.5444    473.70407   -18.761599  -0.15714857    474.07549    44.037849    57.583264    8604.6671 
  390200      1560800    9940.3589     -37658.6    277.87555   0.70452194   -27718.241    5095.3877    474.25632    -18.51581 -0.026371402    474.61763    43.957849    57.518753    8642.6979 
  390400      1561600    9889.7534   -37742.781     276.4609   0.63532203   -27853.027    5226.2937    477.37417   -18.912219  -0.37032786    477.74879    43.877849    57.528215    8680.7691 
  390600      1562400    9755.8488    -37688.16     272.7177   0.61750057   -27932.311    5351.1629    477.03341   -18.582909   -1.6423879    477.39805    43.797849    57.438194    8718.9124 
  390800      1563200    9764.7078   -37668.014    272.96535   0.55229799   -27903.306    5344.3682    478.16719   -19.216482   -1.5794692    478.55577    43.717849    57.391271    8757.1457 
  391000      1564000    9734.4271   -37639.415    272.11887   0.67546631   -27904.988    5377.7621    478.69168   -18.485927   -1.7285307     479.0516    43.637849    57.325438    8795.3958 
  391200      1564800    9766.8984   -37494.242    273.02658   0.62755157   -27727.343    5199.1974    481.41003   -19.686351   -1.4494329    481.81456    43.557849     57.32438    8833.8606 
  391400      1565600    9723.7304   -37505.618    271.81985   0.59406416   -27781.887    5283.8192    482.12606   -18.807728   -1.8411234    482.49628    43.477849    57.263857    8872.3096 
  391600      1566400    9810.2999   -37438.771    274.23984   0.54758685   -27628.471    5108.3281    486.43869   -19.092681   -0.6195296    486.81363    43.397849     57.30721    8910.9934 
  391800      1567200    9750.9394   -37458.479    272.58046    0.6222885    -27707.54     5237.543    485.72426   -19.508042  -0.93246311    486.11675    43.317849    57.207299    8950.0397 
  392000      1568000    9885.2781   -37578.177     276.3358   0.62052616   -27692.899    5198.2296    490.21629   -19.291683  -0.40382407    490.59591    43.237849    57.255275     8989.038 
  392200      1568800    9871.4025    -37482.49    275.94792   0.77304321   -27611.087    5086.5702      495.091    -20.01062  -0.22710123    495.49528    43.157849    57.315257    9028.5263 
  392400      1569600    9908.8603   -37390.599    276.99502   0.61412074   -27481.739    5060.3392     490.5757   -20.187593   -1.0355907    490.99198    43.077849    57.106592    9068.0934 
  392600      1570400    9929.6521   -37563.032    277.57625    0.5964782   -27633.379    5222.4844    492.53472   -21.378811  -0.34011288     492.9986    42.997849    57.083924    9107.3558 
  392800      1571200    9782.1193   -37552.001    273.45207   0.67019905   -27769.882    5300.6653    499.54951   -19.905174    1.0709945    499.94708    42.917849    57.202452    9147.0342 
  393000      1572000    9942.3486   -37468.508    277.93117   0.57441047   -27526.159    5111.3179    498.53113   -19.405669    1.3386395    498.91047    42.837849    57.092834    9187.0702 
  393200      1572800    9796.3496   -37439.007    273.84987   0.72430149   -27642.657    5232.4264    500.93562   -19.876786   0.95182335    501.33072    42.757849    57.081984    9227.0339 
  393400      1573600    9983.8572   -37528.699    279.09151   0.71398149   -27544.841     5137.384    503.57951   -19.636262    1.2784978    503.96383    42.677849    57.077216    9267.1404 
  393600      1574400    9937.4834   -37358.674    277.79516   0.80360567   -27421.191    5080.8103    501.75531   -18.824007   0.50501684    502.10855    42.597849    56.944208    9307.2957 
  393800      1575200    9802.3889   -37446.262    274.01869   0.51022798   -27643.873    5285.0425     505.8226   -19.620441   0.47766556    506.20321    42.517849    56.981198    9347.6084 
  394000      1576000    9759.2627    -37355.17    272.81313   0.60409414   -27595.907    5294.6162    504.82511   -18.399269    1.5763364    505.16275    42.437849    56.871471    9388.2747 
  394200      1576800    9887.5197   -37355.321    276.39846   0.63896897   -27467.801    5163.4728    507.88671   -18.919009    1.5303397    508.24126    42.357849    56.879428    9428.7451 
  394400      1577600    9711.2856   -37466.243    271.47197   0.60654091   -27754.957    5441.8811    511.15342   -19.194432    1.4502732    511.51574    42.277849    56.892985    9469.5494 
  394600      1578400    9763.1213   -37262.173      272.921   0.71904763   -27499.051    5260.0181    508.71053   -19.221246    2.1639862    509.07813    42.197849    56.743339    9510.4062 
  394800      1579200     9736.337   -37406.063    272.17226   0.73201503   -27669.726    5487.5911    507.57458   -19.164969    1.4141243    507.93824    42.117849     56.63077    9550.9726 
  395000      1580000    9882.1722   -37329.151    276.24898   0.70975145   -27446.978    5281.7755    509.18724   -19.982725    2.1382636    509.58368    42.037849    56.597783    9591.7363 
  395200      1580800    9882.6673   -37294.735    276.26282   0.76292794   -27412.067     5260.085    511.04886   -21.347312    2.3976765    511.50014    41.957849    56.572539    9632.5548 
  395400      1581600    9805.1311   -37419.571    274.09535   0.53758423    -27614.44    5423.8912    516.51049   -21.660134    2.1877439    516.96908    41.877849    56.648795    9673.6583 
  395600      1582400    9683.1002   -37297.709    270.68406   0.63436162   -27614.609    5363.0884    523.41746   -22.342446    3.3862586    523.90504    41.797849    56.766965    9715.3943 
  395800      1583200    9831.5247   -37351.377    274.83316   0.72408895   -27519.852    5272.2515    525.92195   -22.024941    2.2611693     526.3878    41.717849    56.757901     9757.422 
  396000      1584000    9830.2132   -37339.779     274.7965   0.64905259   -27509.566    5291.1665    526.69742   -22.714756    2.4603018    527.19274    41.637849    56.700899    9799.6105 
  396200      1584800    9929.0172   -37304.273     277.5585   0.74848908   -27375.256    5254.9189    523.01152   -22.494122    2.5560925    523.50126    41.557849    56.515428    9841.6078 
  396400      1585600    9852.6185   -37118.635    275.42282   0.61915404   -27266.017     5189.813    522.86704   -21.200535    1.7500065     523.2996    41.477849    56.429666    9883.4611 
  396600      1586400    9858.6033   -37177.928    275.59013   0.62978311   -27319.325    5245.5376    525.53473   -20.323289    2.1132425     525.9318    41.397849    56.424872     9925.374 
  396800      1587200    9911.1637    -37172.54    277.05941   0.71281554   -27261.376    5285.6311    521.74979   -20.501138   0.62243867    522.15278    41.317849      56.2369    9967.3248 
  397000      1588000    9862.1092   -37084.525    275.68813   0.67460049   -27222.416    5286.1528     521.9526   -20.494125   0.76942548    522.35536    41.237849    56.162688    10009.059 
  397200      1588800    9806.5368   -37061.839    274.13464   0.70018851   -27255.303    5287.9214    526.77243   -21.250459   0.83105323    527.20154    41.157849    56.221151    10050.934 
  397400      1589600    9939.0437   -37133.419    277.83878   0.65454363   -27194.375     5302.202    524.58958   -21.853942    1.5549229     525.0469    41.077849    56.079589    10093.201 
  397600      1590400    9740.3194   -36963.983    272.28359   0.63084075   -27223.664    5411.4075     522.1062   -21.694322    1.9229672    522.56027    40.997849    55.928543    10135.117 
  397800      1591200    9796.5184   -37093.217    273.85459    0.5655663   -27296.698    5456.0991    526.78282   -20.540607    2.2512575    527.18794    40.917849    55.980762    10176.963 
  398000      1592000    9942.6138   -37114.388    277.93858   0.71574389   -27171.774    5326.6247    529.81805   -20.737362    2.3737973    530.22905    40.837849    55.987651    10219.288 
  398200      1592800    9711.7232   -37072.661     271.4842   0.67928078   -27360.938    5584.1009    528.08868   -19.646596    2.7363372     528.4611    40.757849    55.857138    10261.637 
  398400      1593600    9903.6312   -36980.789    276.84885   0.75950756   -27077.157    5335.2944     528.5291   -18.629421    1.3804467    528.85912    40.677849     55.78851    10303.877 
  398600      1594400    9853.8741   -37091.776    275.45793   0.69004016   -27237.902    5493.6935    531.48013   -19.562556    1.5379694    531.84226    40.597849    55.793743    10346.263 
  398800      1595200    9847.0372   -37052.084     275.2668    0.7196152   -27205.047    5466.2739    534.00263   -18.441744    2.7001264     534.3278    40.517849    55.784758    10388.782 
  399000      1596000    9743.4312    -36958.72    272.37057    0.6174847   -27215.289    5517.1707    534.22597   -17.413858   0.61024052    534.51006    40.437849    55.709965    10431.594 
  399200      1596800    9805.1596   -36907.494    274.09615   0.65286663   -27102.335    5358.1875    540.04419   -17.959997   0.69754962     540.3432    40.357849    55.796627    10474.548 
  399400      1597600    9873.3697   -37111.132    276.00291   0.68630008   -27237.762    5514.7987    541.34998   -18.968646    0.5926309    541.68253    40.277849    55.754893      10517.8 
  399600      1598400    9978.3162   -37079.888    278.93661   0.71364275   -27101.571    5376.8877    544.30627   -18.404102  -0.24569376    544.61738    40.197849    55.758746    10561.391 
  399800      1599200    9840.5307   -37013.914    275.08492   0.62082434   -27173.383    5491.5294    544.25939   -19.957444  -0.89139162     544.6259    40.117849     55.67899    10604.872 
  400000      1600000    9946.6483   -37006.245    278.05136   0.70510605   -27059.597    5456.2764    541.98842   -20.418401  -0.58614347    542.37321    40.037849    55.534627    10648.343 
Loop time of 5634.67 on 8 procs for 400000 steps with 12002 atoms

Performance: 24.534 ns/day, 0.978 hours/ns, 70.989 timesteps/s
83.0% CPU use with 8 MPI tasks x no OpenMP threads

MPI task timing breakdown:
Section |  min time  |  avg time  |  max time  |%varavg| %total
---------------------------------------------------------------
Pair    | 99.777     | 1055.7     | 2524       |2943.5 | 18.74
Bond    | 0.67634    | 7.0807     | 15.947     | 241.9 |  0.13
Neigh   | 2568       | 2576.2     | 2583.9     |  14.9 | 45.72
Comm    | 130.68     | 1124.1     | 1599.1     |1535.8 | 19.95
Output  | 350.45     | 350.6      | 350.83     |   0.6 |  6.22
Modify  | 22.212     | 506.46     | 1035.2     |2138.3 |  8.99
Other   |            | 14.66      |            |       |  0.26

Nlocal:        1500.25 ave        3218 max           0 min
Histogram: 4 0 0 0 0 0 0 0 1 3
Nghost:        4398.50 ave        7884 max         950 min
Histogram: 4 0 0 0 0 0 0 0 0 4
Neighs:       186379.0 ave      459765 max           0 min
Histogram: 4 0 0 0 0 0 1 1 1 1

Total # of neighbors = 1491035
Ave neighs/atom = 124.23221
Ave special neighs/atom = 185.06916
Neighbor list builds = 40000
Dangerous builds = 0

Total wall time: 1:33:56
