LAMMPS (29 Oct 2020)
Reading data file ...
  orthogonal box = (0.0000000 0.0000000 0.0000000) to (1000.0000 1000.0000 1000.0000)
  2 by 2 by 2 MPI processor grid
  reading atoms ...
  12002 atoms
  scanning bonds ...
  600 = max bonds/atom
  reading bonds ...
  12000 bonds
Finding 1-2 1-3 1-4 neighbors ...
  special bond factors lj:    0.0      0.0      0.0     
  special bond factors coul:  0.0      0.0      0.0     
   600 = max # of 1-2 neighbors
   600 = max # of 1-3 neighbors
  1200 = max # of 1-4 neighbors
  1800 = max # of special neighbors
  special bonds CPU = 0.053 seconds
  read_data CPU = 0.115 seconds
Finding 1-2 1-3 1-4 neighbors ...
  special bond factors lj:    0.0      1.0      1.0     
  special bond factors coul:  0.0      0.0      0.0     
   600 = max # of 1-2 neighbors
   600 = max # of 1-3 neighbors
  1200 = max # of 1-4 neighbors
  1800 = max # of special neighbors
  special bonds CPU = 0.051 seconds
1 atoms in group centroid1
1 atoms in group centroid2
Neighbor list info ...
  update every 1 steps, delay 0 steps, check yes
  max neighbors/atom: 2000, page size: 100000
  master list distance cutoff = 43
  ghost atom cutoff = 43
  binsize = 21.5, bins = 47 47 47
  1 neighbor lists, perpetual/occasional/extra = 1 0 0
  (1) pair lj/expand, perpetual
      attributes: half, newton on
      pair build: half/bin/newton
      stencil: half/bin/3d/newton
      bin: standard
Setting up Verlet run ...
  Unit style    : real
  Current step  : 0
  Time step     : 4.0
Per MPI rank memory allocation (min/avg/max) = 195.3 | 196.0 | 197.1 Mbytes
Step Time KinEng PotEng Temp Press TotEng f_1 f_2[1] f_2[2] f_2[3] f_2[4] f_2[5] f_2[6] f_2[7] 
       0            0    9837.4929     -34496.1          275  0.038604638   -24658.607            0            0            0            0            0    199.98055    199.98059            0 
    2000         8000    9796.1854   -34606.577    273.84528 -0.096412357   -24810.392    152.21551    5.1217653  0.004058414 0.0030166922    5.1217678    199.90055    200.04693   0.11556423 
    4000        16000    9761.8307   -34571.627    272.88492   0.04837362   -24809.796    152.16476     1.984776 -0.0006356052 -0.0015623772    1.9847767    199.82055     199.8773 -0.070532907 
    6000        24000    9895.2753    -34967.74    276.61527 0.0097403696   -25072.465    411.28968   -1.9466186 0.00056132307 0.00077194431   -1.9466188    199.74055    199.68497   -0.2717352 
    8000        32000    9805.9503   -34952.971    274.11825 -0.046081443   -25147.021    483.30034    0.3947604 -0.00013579411 0.00055802875   0.39476082    199.66055    199.67187  0.051537207 
   10000        40000    9954.1409   -35155.066    278.26081 -0.033590736   -25200.925    537.21043   -1.2224534 0.00029543185 -0.0005858379   -1.2224535    199.58055    199.54566 -0.049536056 
   12000        48000    9806.9744   -35352.845    274.14688   0.07371472   -25545.871    877.83796   -7.2731832  0.012970555 0.0061689718   -7.2731974    199.50055    199.29279 -0.014541038 
   14000        56000    9735.3041   -35602.482    272.14339  0.030839348   -25867.178    1196.5039    0.9125515 -0.0018939752 -0.00070863939   0.91255374    199.42055    199.44666  0.064441207 
   16000        64000    9926.6155   -35437.175    277.49136  -0.11742276   -25510.559    841.49133    4.2999402 -0.010052306 -0.0044644745    4.2999542    199.34055    199.46345   0.12086072 
   18000        72000    9934.4264   -35575.145    277.70971  0.053139561   -25640.719    969.98689   -2.1748945 0.0032772482 0.0012445194   -2.1748973    199.26055    199.19845   -0.1002567 
   20000        80000    9769.2521   -35761.405    273.09238 -0.0039190736   -25992.153    1319.3281    2.0782078 -0.0047397456 -0.0005772446    2.0782133    199.18055    199.23997  -0.21624626 
   22000        88000    9838.6403   -35861.095    275.03208 -0.0071054078   -26022.455    1348.1486    1.9029785 -0.0037926993 -0.0020758839    1.9029835    199.10055    199.15496   0.11117857 
   24000        96000    9924.4663   -35931.945    277.43128  0.052215781   -26007.479     1332.373    -1.757948 0.0038642304 0.00041024385   -1.7579523    199.02055    198.97036 -0.062296083 
   26000       104000    9848.3763   -35975.092    275.30424 -0.038419848   -26126.715    1453.0617    2.8923941 -0.0097836922 -0.0014327566     2.892411    198.94055    199.02323 -0.076089828 
   28000       112000    9835.9317   -36052.562    274.95636   0.03742649    -26216.63    1540.9324   -6.7657435  0.025796701 -0.0010259412   -6.7657927    198.86055    198.66728 -0.0010663706 
   30000       120000    10004.953   -36266.026    279.68121 -0.066238537   -26261.074    1582.2735    4.8271876 -0.019785092 0.0011924792    4.8272283    198.78055    198.91851  -0.18045838 
   32000       128000    9899.8642   -36182.126    276.74354  0.059307371   -26282.262    1604.0144   0.30378898 -0.00096939073 -1.5298539e-05   0.30379052    198.70055    198.70927   0.12259583 
   34000       136000    9828.9182   -36062.007     274.7603 -0.085496736   -26233.089    1559.2243   -2.4245548  0.010071198 0.0027968021   -2.4245773    198.62055    198.55132   0.14392236 
   36000       144000    9806.9144     -36112.3     274.1452  -0.11369348   -26305.385    1628.2801   -4.0181038  0.020082119 0.0020975896   -4.0181545    198.54055    198.42579  -0.17725911 
   38000       152000    9863.7769   -36197.623    275.73475  0.071909742   -26333.846     1653.472    6.5627197 -0.036238649 -0.0081144386    6.5628248    198.46055     198.6481  0.011116774 
   40000       160000    9828.2624   -36131.657    274.74197 -0.036898932   -26303.395    1626.2518   -3.4175949   0.01722508 0.0029591142   -3.4176396    198.38055    198.28294   0.26919418 
   42000       168000    9828.3113   -36131.309    274.74334 -0.048271706   -26302.997     1624.668   -9.7530848   0.05152624  0.012978573   -9.7532295    198.30055    198.02193 -0.069565061 
   44000       176000     9852.586   -36279.146    275.42192  0.098216686   -26426.561    1745.0052    2.0497892 -0.015301376 -0.001425508    2.0498468    198.22055    198.27916  -0.39504689 
   46000       184000    9846.6535   -36329.087    275.25608  0.097493771   -26482.433    1794.2854    12.867676 -0.064658851  -0.01200417    12.867844    198.14055    198.50824   0.19504443 
   48000       192000    9940.9984   -36488.758    277.89342   0.12698026   -26547.759    1864.2397   -3.0604979  0.020579592  0.005214863   -3.0605716    198.06055    197.97315   0.31624347 
   50000       200000    9877.2359    -36284.58    276.11099 -0.046727699   -26407.344     1726.062   -5.7159953  0.038072261  0.013558863   -5.7161381    197.98055    197.81727  -0.31855824 
   52000       208000    9873.4494   -36300.482    276.00514 -0.069893761   -26427.033    1747.4448    5.3679644 -0.035126918 -0.012731337    5.3680944    197.90055    198.05397  -0.06226878 
   54000       216000    9840.9718   -36403.205    275.09725 -0.030607128   -26562.233    1879.9609    2.5629511 -0.021993972 -0.0037681605    2.5630483    197.82055    197.89382   0.20702447 
   56000       224000    9697.2948   -36389.417    271.08086 -0.053980186   -26692.122    2010.3645   -5.0840999  0.034811004   0.01277128   -5.0842351    197.74055    197.59533 -0.062252144 
   58000       232000    9829.0517   -36406.559    274.76403  0.024453609   -26577.507    1897.8308    4.2728776 -0.034226801 -0.011573429    4.2730304    197.66055    197.78268   -0.1891668 
   60000       240000    9862.2285   -36535.828    275.69147  -0.02626004   -26673.599     1988.896    6.5099725 -0.051020182 -0.0084139456    6.5101779    197.58055     197.7666   0.12456098 
   62000       248000    9911.0549   -36559.246    277.05637  0.057680916   -26648.191    1962.8433   -7.8514613  0.056116028  0.004616202   -7.8516632    197.50055    197.27626 0.0017385018 
   64000       256000    9804.0401    -36483.87    274.06485   0.12131567    -26679.83    1994.5963    1.0922597 -0.0090744522 -0.0017022079    1.0922987    197.42055     197.4518 -0.032140289 
   66000       264000    9814.9544   -36728.102    274.36995  0.012368025   -26913.147    2227.3922    1.3324237 -0.012458474 -0.0022361765    1.3324839    197.34055    197.37866  -0.11377202 
   68000       272000    9836.3316   -36750.883    274.96754  0.030526762   -26914.551    2227.9308    1.8867668 -0.016877809 -0.0038806812    1.8868463    197.26055     197.3145  0.026540148 
   70000       280000    9815.8378   -36971.222    274.39465 -0.038400868   -27155.384     2471.743  -0.78502508 0.0073289032 0.00089221801  -0.78505979    197.18055    197.15816 -0.031390961 
   72000       288000    9809.9376   -36766.978    274.22971 0.0012069066   -26957.041    2270.7288    1.2669459 -0.012936677 -0.0028992927    1.2670153    197.10055    197.13679  -0.13823495 
   74000       296000    9855.2162   -36773.888    275.49544 0.0012920314   -26918.672    2235.0969   -4.8766797  0.044663892  0.014194956   -4.8769049    197.02055    196.88125  -0.10431501 
   76000       304000    9834.5622    -36784.26    274.91808  0.024840025   -26949.698     2261.632    4.3838779 -0.047840903 -0.0072719394    4.3841449    196.94055    197.06585 -0.057899351 
   78000       312000    9960.1986   -36796.991    278.43015  0.079174294   -26836.793    2149.8413   -3.3643706  0.035890901 0.0066620842   -3.3645687    196.86055    196.76446   0.18324666 
   80000       320000    9827.6653   -36773.207    274.72528  0.010857082   -26945.542    2259.2415   -2.6702051  0.029139906 0.0037146686   -2.6703667    196.78055     196.7043 -0.055475054 
   82000       328000     9836.812   -36720.945    274.98097    0.0576355   -26884.133    2197.3002  -0.91113265  0.010268425 0.0023983113  -0.91119367    196.70055    196.67456  -0.28116928 
   84000       336000    9711.4368   -36944.044    271.47619   0.10219717   -27232.607    2543.2811    7.3869753 -0.081697708 -0.016163837    7.3874447    196.62055    196.83166 0.0099895822 
   86000       344000    9803.1513   -36872.856    274.04001 -0.00093264637   -27069.705    2382.9779   -5.7890408  0.069982369 0.0096450917   -5.7894718    196.54055    196.37518   0.38409522 
   88000       352000    9965.0219   -36866.235    278.56498  -0.03727542   -26901.213    2212.6878   -4.3471746  0.051938803  0.011984597   -4.3475014    196.46055    196.33638  -0.25388965 
   90000       360000    9882.0216   -37159.788    276.24477  0.075025785   -27277.766    2587.4669    3.8690788 -0.045987102 -0.0092663084    3.8693632    196.38055    196.49114   -0.1545873 
   92000       368000    9907.8978    -36981.65    276.96812  0.075701282   -27073.752    2381.6064    3.8284325 -0.045949624 -0.0052347814    3.8287118    196.30055    196.40998   0.12812304 
   94000       376000    9813.5329   -37157.474    274.33021 -0.083455594   -27343.941    2653.7716  -0.48798464   0.00599658 0.00058653485  -0.48802184    196.22055    196.20665   0.13168795 
   96000       384000    9915.9921   -37154.557    277.19439   0.04559832   -27238.565     2548.551   -3.3804349  0.044987233 0.0066059128   -3.3807407    196.14055      196.044  -0.10703493 
   98000       392000     9905.769   -36981.609    276.90861 0.0073278955    -27075.84    2385.9144    4.7428566 -0.059105614   -0.0129628    4.7432426    196.06055    196.19611  -0.24044916 
  100000       400000    9851.8679   -37115.032    275.40184  -0.06448282   -27263.165    2572.4771    2.8051219 -0.037433383 -0.0052823175    2.8053766    195.98055    196.06075  0.056374765 
  102000       408000    9903.0399   -36966.035    276.83232  0.070853871   -27062.995    2372.4777   -4.6990552  0.063056398 0.0014329114   -4.6994785    195.90055    195.76632   0.20628851 
  104000       416000    9918.2001   -36990.619    277.25611  -0.10980277   -27072.419    2383.8748    -1.661942  0.022135401 0.0016560915   -1.6620902    195.82055     195.7731  -0.21577355 
  106000       424000    9653.6122   -36952.012    269.85975  0.019718215   -27298.399    2609.0449    1.4704768 -0.020335661 -0.0029371681    1.4706204    195.74055    195.78261  -0.22634057 
  108000       432000    9823.8597   -36947.309    274.61889 -0.032026723   -27123.449    2434.3294    1.7413635 -0.024576314 -0.0017814154    1.7415378    195.66055    195.71035    0.1368699 
  110000       440000    9843.6177   -37049.598    275.17121 -0.057532589    -27205.98    2514.7334   -6.2960644  0.087590716 0.0087108266   -6.2966797    195.58055    195.40069   0.16898889 
  112000       448000    9797.1418    -37168.07    273.87201 -0.064068453   -27370.928    2680.3796   -2.2318884  0.031137032 0.0058042644   -2.2321132    195.50055    195.43682  -0.22328301 
  114000       456000    9864.8825    -37033.75    275.76566 -0.0082935397   -27168.868    2478.4776    5.2156018 -0.079072996 -0.010768987    5.2162122    195.42055    195.56963  -0.10442558 
  116000       464000    9698.9758   -37065.383    271.12785   0.10039718   -27366.407    2675.1954     3.701534 -0.054371348 -0.0095915445    3.7019457    195.34055    195.44636 -0.0053837325 
  118000       472000    9820.8584   -37022.051    274.53499 -0.033021395   -27201.193    2511.6961   -4.1670405  0.067051837   0.01384226   -4.1676029    195.26055    195.14152  0.062571133 
  120000       480000    9901.0428   -37244.611    276.77649  0.052911646   -27343.569    2651.3544   -5.2249114  0.086324846  0.017167512   -5.2256526    195.18055    195.03129  -0.14006969 
  122000       488000    9840.7726   -37253.566    275.09168 -0.033203085   -27412.793    2720.1867    6.3129585 -0.098081728 -0.016401207    6.3137417    195.10055    195.28098  -0.14683501 
  124000       496000    9810.3696   -37106.756    274.24179 -0.088477638   -27296.386    2606.8171    7.0250982  -0.11589748 -0.021483188     7.026087    195.02055    195.22134   0.30048354 
  126000       504000    9824.0925   -37179.002     274.6254  0.053674712   -27354.909     2663.477    1.2225372 -0.020055464 -0.0041113043    1.2227086    194.94055    194.97553  0.048034994 
  128000       512000    9837.0442   -37320.873    274.98746 -0.0097965069   -27483.828    2791.5963   -4.9535509  0.081939061  0.012295897   -4.9542439    194.86055    194.71904  -0.39250716 
  130000       520000    9970.7801   -37221.366    278.72595 -0.025040361   -27250.586    2558.7606    6.2119876  -0.10488548 -0.017453664    6.2128975    194.78055     194.9581  0.097273448 
  132000       528000    9751.6968   -37386.631    272.60163  -0.12917681   -27634.934    2942.0881       -4.978  0.088407277  0.015606882   -4.9788095    194.70055    194.55834   0.17926667 
  134000       536000    9776.1131   -37225.421    273.28417 -0.030691317   -27449.308     2758.854  -0.81027342  0.014312559 0.0020991443  -0.81040254    194.62055    194.59744 -0.083875634 
  136000       544000    9802.3543   -37074.422    274.01773 -0.0059588956   -27272.068    2581.2423   0.14333815 -0.002612317 -0.00034413016   0.14336236    194.54055    194.54469 0.0092250835 
  138000       552000    9911.7277   -37230.696    277.07518 -0.082247191   -27318.969    2627.4618    1.0626874 -0.019862744 -0.0029767258    1.0628772    194.46055    194.49096 -0.060602586 
  140000       560000    9864.2571   -37246.557    275.74817   0.03791063     -27382.3    2690.1353    5.4432567 -0.098802309 -0.012086409    5.4441667    194.38055    194.53614  0.053113361 
  142000       568000     9884.866   -37084.636    276.32428  0.062321868    -27199.77    2509.4942    1.4530635 -0.026409455 -0.0030038028    1.4533066    194.30055    194.34211  -0.14669451 
  144000       576000    9911.1796   -37224.455    277.05986  0.043193049   -27313.275    2622.0025   0.24041188 -0.0045965318 -0.00037555485   0.24045611    194.22055    194.22746  -0.18914296 
  146000       584000    9907.0251   -37214.649    276.94372  0.054134971   -27307.624     2616.563    2.3021132 -0.045075783 -0.0066405739     2.302564    194.14055    194.20638   0.22620206 
  148000       592000    9864.1952   -37506.064    275.74644  0.098260753   -27641.869    2947.3789   -7.9745109   0.15477071  0.015245602   -7.9760273    194.06055    193.83271  -0.10160349 
  150000       600000     9830.999    -37379.07    274.81847 -0.030895298   -27548.071    2854.3298    5.1771986   -0.1042894  -0.01248297    5.1782639    193.98055    194.12854 -0.060145151 
  152000       608000    9903.0882    -37230.44    276.83367  0.066647362   -27327.351     2632.887   -5.6336982   0.11144738  0.017442266   -5.6348275    193.90055     193.7396   0.15155124 
  154000       616000    9926.4824   -37408.803    277.48764   0.13782956    -27482.32    2786.3479   -1.8952339  0.038735042 0.0038784627   -1.8956336    193.82055    193.76643  -0.11665121 
  156000       624000    9877.1956    -37339.66    276.10986 -0.028774344   -27462.465     2768.529    5.1421112  -0.10813166 -0.0084401865    5.1432549    193.74055    193.88754 -0.080322217 
  158000       632000    9632.6142   -37379.458    269.27276  0.017318243   -27746.844    3052.3981   -2.3385218  0.050688239 0.0066603794   -2.3390806    193.66055    193.59376   0.23781388 
  160000       640000    9895.5193   -37427.273    276.62209   0.12427418   -27531.753    2835.8423   -3.5742291  0.072809273 0.0081488685   -3.5749799    193.58055    193.47845  -0.03767065 
  162000       648000    9954.3086    -37383.66     278.2655 -0.092455719   -27429.352    2738.1428   -1.8639539  0.039517126 0.0046974822   -1.8643786    193.50055    193.44732  -0.11799915 
  164000       656000     9855.964   -37313.899    275.51635 -0.090522548   -27457.935    2765.7501   0.39915711 -0.0086624571 -0.0010115154   0.39925238    193.42055      193.432  -0.01661401 
  166000       664000    9859.7984    -37442.83    275.62353  0.040200694   -27583.032    2888.4651     5.011181  -0.10653869 -0.018882232    5.0123489    193.34055     193.4838  0.062956082 
  168000       672000    9781.7891   -37420.704    273.44284  0.033178428   -27638.915    2944.7446   -3.3377172  0.071396269 0.0092481857   -3.3384935    193.26055    193.16521  -0.19904637 
  170000       680000    9936.5484   -37346.682    277.76903  0.064116089   -27410.133    2715.4398    3.3455882  -0.07428768 -0.0091684398    3.3464254    193.18055     193.2762  0.017325995 
  172000       688000    9799.9116   -37640.646    273.94944  0.043596994   -27840.735    3144.0631   -3.6041081  0.079902161  0.011677816   -3.6050126    193.10055    192.99759   0.13401362 
  174000       696000    9864.9956   -37435.413    275.76882 -0.067615649   -27570.418    2876.2046   0.14420774 -0.0034126945 -0.00041569009   0.14424872    193.02055    193.02471  -0.28745609 
  176000       704000    9849.4945   -37569.965     275.3355   0.09727496    -27720.47    3022.2412    10.075461  -0.23790893 -0.024399686    10.078299    192.94055    193.22854  0.068286722 
  178000       712000    9849.9893   -37611.257    275.34933    0.1014177   -27761.267    3063.0065  -0.86573334  0.019513326 0.0025072274  -0.86595686    192.86055    192.83585   0.31122014 
  180000       720000    9927.7174   -37533.719    277.52216  0.037301978   -27606.001    2909.2677   -3.9256215  0.093735141  0.012046862   -3.9267589    192.78055     192.6684  -0.24915861 
  182000       728000    9647.9053   -37522.525    269.70022  0.039780087    -27874.62    3176.5614    3.0445738 -0.070850501  -0.01189368    3.0454213    192.70055     192.7876  -0.19043331 
  184000       736000    9915.9014   -37656.324    277.19185   0.14082821   -27740.422    3040.3776    2.7841456 -0.067802598 -0.010936792    2.7849926    192.62055    192.70016   0.36377044 
  186000       744000    10016.438   -37478.456    280.00229   0.16939743   -27462.018    2762.8863   -10.553359   0.25865328  0.029875688    -10.55657    192.54055    192.23898  -0.10976669 
  188000       752000    10023.268   -37637.807    280.19322 -0.025603186   -27614.539    2919.4999   0.87802244 -0.021604277 -0.0034292336   0.87829488    192.46055    192.48569  -0.30414476 
  190000       760000     9914.366   -37595.249    277.14893 -0.042552076   -27680.883    2984.9938    2.2400696  -0.05655883 -0.0087177114    2.2408004    192.38055    192.44461   0.13114972 
  192000       768000    9885.2081   -37721.074    276.33384 0.0014254919   -27835.866    3137.6623   -2.7248039  0.067779679 0.0086825726   -2.7256607    192.30055    192.22272   0.14198112 
  194000       776000    9834.5883   -37755.467     274.9188  0.026814159   -27920.878    3224.9069   0.90449159 -0.022800427 -0.003387582   0.90478526    192.22055    192.24644  -0.18030582 
  196000       784000    9873.0091   -37644.492    275.99283 -0.010789005   -27771.483     3074.607   -2.0820969   0.05379504 0.0075380102   -2.0828053    192.14055    192.08108 -0.013414542 
  198000       792000    9845.6278   -37613.949    275.22741 -0.033544259   -27768.321    3070.2364   0.81047029 -0.020494297 -0.0028546292    0.8107344    192.06055    192.08376  0.099911928 
  200000       800000    9753.7426   -37768.473    272.65882 -0.018859595    -28014.73    3315.2237    3.0213813 -0.076079859   -0.0118518    3.0223622    191.98055    192.06694  -0.10671343 
  202000       808000    9786.2599   -37643.941    273.56782  0.015228718   -27857.681    3160.0927    3.7815729 -0.095555518 -0.016965506    3.7828181    191.90055    192.00867  0.080083183 
  204000       816000    9694.1197   -37660.193    270.99211 0.0039082002   -27966.074     3267.831   -4.7802346   0.12460303  0.016710797   -4.7818875    191.82055    191.68397 0.0086748527 
  206000       824000    9950.3462   -37786.639    278.15473 -0.028766367   -27836.293    3136.9954    3.0075992 -0.083614152 -0.011029134    3.0087815    191.74055    191.82656  -0.10307218 
  208000       832000    9749.6273   -37787.517    272.54378 -0.037874695   -28037.889     3339.725    1.5534443  -0.04244167 -0.0049192372    1.5540317    191.66055    191.70499 -0.089069256 
  210000       840000    9747.8131   -37772.098    272.49307 -0.077068347   -28024.285     3327.612   -1.3447771  0.036929881 0.0038510439   -1.3452896    191.58055    191.54215    0.1729583 
  212000       848000      9847.16   -37810.921    275.27024  0.024839141   -27963.761    3264.3701   -3.3096201  0.092301329 0.0071478433   -3.3109147    191.50055    191.40599  -0.02362141 
  214000       856000    9885.4701   -37800.712    276.34117  0.063418998   -27915.242    3214.3551   -1.7441456  0.050390716  0.005301667   -1.7448815    191.42055    191.37074  -0.17953089 
  216000       864000    9967.9955   -37775.007    278.64811 -0.036762711   -27807.011    3107.5926    3.6707015  -0.10394517   -0.0115374     3.672191    191.34055    191.44551 -0.017835242 
  218000       872000    9880.0278   -37834.522    276.18903  -0.11805224   -27954.495    3257.1419   -2.2653567  0.062670771 0.0066162981    -2.266233    191.26055    191.19584   0.20399984 
  220000       880000    9922.2019   -37995.377    277.36798    0.0333815   -28073.175     3371.571    1.2653058 -0.037272675 -0.0042146946    1.2658617    191.18055    191.21676  -0.22349448 
  222000       888000    9801.8884    -37622.17     274.0047 -0.024283207   -27820.282    3122.9138    6.2220773   -0.1788905 -0.020904932    6.2246835    191.10055    191.27844 -0.0017176538 
  224000       896000    9984.1285    -37692.31    279.09909 -0.044164043   -27708.181    3012.1386   0.97825117 -0.028685741 -0.003277206   0.97867715    191.02055    191.04855   0.13359203 
  226000       904000    9799.4194   -37909.619    273.93568 -0.038994511     -28110.2    3412.1293    -3.153567  0.093517456  0.011973137    -3.154976    190.94055    190.85045 -0.080607979 
  228000       912000    9757.1444   -37854.851    272.75392 -0.016660668   -28097.706     3399.795   -1.7958269  0.053659843 0.0056828821   -1.7966374    190.86055    190.80926  -0.11918386 
  230000       920000    9727.5051   -37952.817    271.92537    0.0362616   -28225.311    3525.6058    2.5785703 -0.078470826 -0.010262198    2.5797844    190.78055     190.8543  -0.16264875 
  232000       928000    9887.1852   -37937.274    276.38911 -0.045906498   -28050.089     3351.624   0.96172763 -0.029053548 -0.0021718012   0.96216883    190.70055    190.72808   0.19281732 
  234000       936000    9730.7778   -37805.052    272.01686   0.01122723   -28074.275    3374.9766   -1.7169309  0.053284717 0.0059501463   -1.7177679    190.62055    190.57151 -0.0057067063 
  236000       944000    9838.5391    -38063.86    275.02925  0.057939122    -28225.32    3523.8973    5.9351299  -0.18756029 -0.018334251    5.9381211    190.54055    190.71025  -0.12660767 
  238000       952000    9671.5172   -37980.294    270.36027 -0.068703831   -28308.777    3608.5006    6.2837203  -0.19465358 -0.020884049    6.2867692    190.46055    190.64021 0.0097098503 
  240000       960000    9744.1453   -37817.934    272.39054 -0.054751194   -28073.789    3375.6499    -3.252895   0.10197179 0.0089217499   -3.2545051    190.38055    190.28761  0.078368831 
  242000       968000    9809.2052   -38035.405    274.20924 -0.042626334   -28226.199    3526.8229   0.51548411 -0.015388617 -0.0019624022   0.51571748    190.30055    190.31533  -0.14030921 
  244000       976000    9801.4777   -37809.492    273.99322 -0.042527284   -28008.014    3308.9189   -6.6901411   0.21284213  0.018719059   -6.6935521    190.22055    190.02935 -0.060135889 
  246000       984000    9875.3445   -37760.963    276.05811 -0.031100163   -27885.618    3188.8664   -2.9905054  0.092141906  0.007389571   -2.9919337    190.14055    190.05511  0.015733131 
  248000       992000    9804.5362    -37903.08    274.07872 -0.050976692   -28098.544    3399.1587   -6.9135587   0.21482157  0.013690055   -6.9169089    190.06055    189.86297 -0.090606537 
  250000      1000000    10035.325   -37890.344    280.53025 -0.069647628   -27855.019     3157.767  -0.59053833  0.018887676 0.0014623503  -0.59084212    189.98055    189.96371 -0.068275419 
  252000      1008000    9801.5834   -37894.142    273.99618   0.10532498   -28092.559    3393.7911   -3.2150036   0.10205232 0.0095805848   -3.2166372    189.90055    189.80869 -0.055228141 
  254000      1016000    9767.1929   -37957.146    273.03482   0.01962047   -28189.953    3489.4983   -1.1672904  0.038140301 0.0037980879   -1.1679195    189.82055    189.78722 -0.027737552 
  256000      1024000    9827.6074    -37774.61    274.72366 -0.015008341   -27947.003    3248.8934    1.0270961 -0.034160859 -0.0027339608    1.0276676    189.74055    189.76995   0.03505001 
  258000      1032000    9802.7241   -37852.827    274.02806  0.059209734   -28050.103    3349.6324   -5.3984554   0.17849025   0.02377123   -5.4014576    189.66055    189.50626 -0.068508229 
  260000      1040000    9756.1124   -37807.729    272.72507   0.12585019   -28051.617    3350.4519    3.9079582  -0.12887332 -0.018553472    3.9101266    189.58055    189.69231  -0.15055476 
  262000      1048000    9857.5373   -37831.495    275.56033  0.034249385   -27973.958    3274.7128    6.0196178  -0.19956397 -0.023623157    6.0229712    189.50055    189.67268   0.15072827 
  264000      1056000    9879.2324   -37841.097     276.1668  0.050632041   -27961.865    3262.0347   -1.3175831  0.044963745 0.0044746922   -1.3183577    189.42055    189.38292 -0.0091534803 
  266000      1064000    9882.1243   -37878.375    276.24764 -0.075763511   -27996.251    3297.9614  -0.71522746  0.024718452 0.0017900223  -0.71565671    189.34055    189.32014  -0.20820943 
  268000      1072000    9791.6825   -37868.132     273.7194   -0.1213983   -28076.449    3378.1552    7.2600139  -0.24499119 -0.025889618    7.2641925    189.26055    189.46814 -0.099529163 
  270000      1080000    9933.7036   -37901.241     277.6895  -0.12088532   -27967.538    3271.2448   -1.4971409  0.051228971 0.0050396007   -1.4980256    189.18055    189.13779   0.24294884 
  272000      1088000    9700.9844   -37999.618      271.184 -0.028739184   -28298.634    3599.1367   -3.4238889   0.11962426  0.012523561   -3.4260009    189.10055    189.00271  -0.31345143 
  274000      1096000    9872.6815   -37973.064    275.98367  0.049810258   -28100.382    3398.9408    7.4063227  -0.25848022 -0.023947578    7.4108705    189.02055    189.23233 -0.080302974 
  276000      1104000    9953.1061   -38000.142    278.23188  0.011026113   -28047.035    3346.8723   -8.0238236   0.28085167   0.02179254   -8.0287669    188.94055     188.7112    0.1407382 
  278000      1112000    9848.7474   -37815.575    275.31461 -0.040457255   -27966.827    3268.6013   -1.3001613  0.047850662  0.004680519   -1.3010499    188.86055    188.82342  -0.11316413 
  280000      1120000    9788.4858   -38007.643    273.63004 -0.062034521   -28219.157    3518.4702  -0.97117888  0.034973673 0.0024260005  -0.97181143    188.78055    188.75283  -0.10788732 
  282000      1128000    9908.0392   -37907.707    276.97207 -0.040205519   -27999.668     3300.351   -1.7608346  0.063304537 0.0061224221   -1.7619828    188.70055    188.65025   0.10810335 
  284000      1136000    9854.0326   -37946.815    275.46236 -0.075183425   -28092.783     3391.065   -5.7431916   0.21076139  0.023328136   -5.7471049    188.62055    188.45639  0.024387434 
  286000      1144000    9888.4682   -37870.269    276.42498  0.024822779   -27981.801     3282.259   -1.6941434  0.062379149 0.0058799935   -1.6953016    188.54055    188.49215  -0.23737148 
  288000      1152000    9745.6137    -38022.31    272.43159  0.010309763   -28276.697    3577.6014    6.1129212  -0.22565579 -0.028441773    6.1171509    188.46055    188.63537  0.086395071 
  290000      1160000    9784.4173   -37973.579    273.51631 -0.084176706   -28189.162    3489.3335   0.74488821 -0.028119722 -0.0028341083   0.74542417    188.38055    188.40189   0.13075731 
  292000      1168000    9803.2319   -37901.564    274.04226 -0.030999051   -28098.332    3398.1035   -5.1952559   0.19505397  0.019572333   -5.1989531    188.30055    188.15205  -0.11681724 
  294000      1176000    9841.3673   -37837.349    275.10831   -0.1417411   -27995.982    3298.2351    1.5156212 -0.057350203 -0.006611323    1.5167203    188.22055    188.26393  -0.09606113 
  296000      1184000    9846.8227   -37912.526    275.26081 -0.0099330278   -28065.704    3364.4872    5.0373287  -0.19264302 -0.014192312     5.041031    188.14055    188.28462  -0.02565958 
  298000      1192000    9835.2066   -38122.022    274.93609 -0.065234441   -28286.815    3586.3793    3.2595884   -0.1262408 -0.010911641    3.2620503    188.06055    188.15379  0.081833999 
  300000      1200000    9758.3779   -37927.778     272.7884 -0.038533944     -28169.4    3468.5706   -4.7581325   0.18379986  0.020605791   -4.7617257    187.98055    187.84454  -0.10186058 
  302000      1208000    9832.8259   -38021.768    274.86954  0.021540684   -28188.942    3487.8994   -1.7398913  0.067652282 0.0056152013   -1.7412151    187.90055    187.85084  -0.16452545 
  304000      1216000    9779.8634   -37968.421    273.38901   0.14962472   -28188.558    3487.8564    2.9441754  -0.11749496 -0.010266582    2.9465368    187.82055    187.90478   0.18854939 
  306000      1224000    9773.2404   -37892.533    273.20387  0.065936432   -28119.292    3419.8088   -8.4678428   0.32821433  0.020637609   -8.4742263    187.74055    187.49847  -0.13415261 
  308000      1232000     9909.194     -37773.6    277.00435 -0.078040363   -27864.406    3167.0112    1.3288129 -0.052563075 -0.0036290469     1.329857    187.66055    187.69859  -0.16788929 
  310000      1240000    9676.5481   -38007.344     270.5009 -0.043637726   -28330.796    3631.2254    4.0725235  -0.16529734 -0.011364694    4.0758926    187.58055    187.69705    0.1382832 
  312000      1248000    9916.7765   -37958.524    277.21632  -0.02281299   -28041.747    3343.7507   -3.9367201   0.16046278  0.020069022   -3.9400402    187.50055    187.38802  0.067913939 
  314000      1256000    9698.7355   -37915.943    271.12114 -0.012791528   -28217.208    3517.9348 -0.084517702 0.0034920714 0.00029034602 -0.084590311    187.42055    187.41817  -0.18656778 
  316000      1264000    9760.2974   -38101.867    272.84206  0.051631738    -28341.57    3638.0297     1.559843 -0.065654129 -0.005358839    1.5612333    187.34055     187.3852  -0.13506892 
  318000      1272000    9861.7207   -38001.014    275.67727   0.13363608   -28139.293     3435.404    3.8891734  -0.16239929   -0.0146934    3.8925902    187.26055    187.37181   0.13802855 
  320000      1280000    9776.1161   -37909.078    273.28426  0.025468405   -28132.962    3432.5713    -4.091952   0.17395922  0.015469602   -4.0956773    187.18055    187.06357  0.047786312 
  322000      1288000    9828.9001   -38125.541    274.75979 -0.030877158   -28296.641    3594.9739    1.1533417 -0.048613551 -0.0049096029    1.1543762    187.10055    187.13357   -0.1768958 
  324000      1296000     9773.592   -38157.763     273.2137 -0.015266727   -28384.171    3680.5834    2.2249025 -0.093590729 -0.0079307415    2.2268842    187.02055    187.08422 -0.037537125 
  326000      1304000    9895.8557   -38261.423    276.63149 -0.0072419121   -28365.568    3661.3016   -1.8149132  0.078588079 0.0072014089   -1.8166281    186.94055    186.88869   0.13431929 
  328000      1312000     9827.872   -38185.217    274.73105 0.0037665295   -28357.345     3656.844   -3.6140125   0.15553482   0.01530106   -3.6173901    186.86055    186.75724  -0.15067347 
  330000      1320000    9727.4118    -38214.34    271.92276  -0.04011415   -28486.929    3784.5982    2.3981382  -0.10372573 -0.010637459    2.4004039    186.78055    186.84917 -0.014893144 
  332000      1328000    9873.5033    -38300.26    276.00665  0.020228866   -28426.757    3721.8636    2.2827171  -0.10185374 -0.0087583001    2.2850051    186.70055    186.76588   0.10960563 
  334000      1336000    9822.4127   -37958.413    274.57844  0.012188695       -28136    3436.7235  -0.68561165  0.030128222 0.0027444126  -0.68627879    186.62055    186.60098  -0.23903567 
  336000      1344000    9819.1525   -38135.828    274.48731 -0.002131197   -28316.676    3615.2138    7.2738562  -0.31989115 -0.022406664    7.2809214    186.54055    186.74862  0.044353888 
  338000      1352000     9814.603   -38277.792    274.36013 -0.00062276629   -28463.189    3759.6807   -3.9476505   0.17587614  0.011706047   -3.9515837    186.46055    186.34769   0.22986811 
  340000      1360000     9649.138   -38315.518    269.73467   0.11645215    -28666.38    3962.0236   0.10664535 -0.0048510039 -0.00043722926   0.10675652    186.38055    186.38364  -0.27098011 
  342000      1368000     9813.974   -38132.698    274.34255   0.11060686   -28318.724    3614.1712    8.6147745  -0.38203632 -0.029292227    8.6232911    186.30055    186.54697 -0.0022994248 
  344000      1376000    9783.1992     -38182.3    273.48226 -0.089189098   -28399.101    3694.9057   -5.5092894   0.24463793  0.022584995   -5.5147645    186.22055    186.06303   0.39007339 
  346000      1384000    9867.2177   -38016.722    275.83094   0.11239563   -28149.504     3446.285   -1.5413951  0.069082172 0.0062119836   -1.5429549    186.14055    186.09651  -0.26260545 
  348000      1392000    9941.2273   -38218.455    277.89982 -0.025001719   -28277.228    3571.8759    11.492622  -0.54237824 -0.044662856      11.5055    186.06055    186.38932  -0.14303551 
  350000      1400000    9848.0956   -38202.644    275.29639 0.0042902733   -28354.549    3651.4448  -0.70411468  0.032627694 0.0032356626  -0.70487766    185.98055    185.96045   0.16437589 
  352000      1408000    9843.6646   -38177.447    275.17253 -0.009818989   -28333.782    3631.1437   -5.2706188   0.23913965  0.015782367   -5.2760648    185.90055    185.74985  -0.10488871 
  354000      1416000    9933.3107   -38087.592    277.67852 -0.041106589   -28154.282     3455.062    3.2286844  -0.15034354 -0.013696537    3.2322119    185.82055    185.91294  -0.14822122 
  356000      1424000    9846.3601   -38177.692    275.24788 -0.069428689   -28331.332    3631.9783    1.4168853 -0.065708835 -0.0067383224    1.4184242    185.74055    185.78112 -0.085592021 
  358000      1432000    9828.2215   -38148.435    274.74083  0.012618251   -28320.213    3615.5757  -0.61701437  0.028674809 0.0020294418  -0.61768366    185.66055    185.64294   0.12071466 
  360000      1440000    9775.6533   -38134.878    273.27132  0.024496497   -28359.224    3657.1404    1.8708242 -0.089554419 -0.0068554154     1.872979    185.58055    185.63411 -0.064526516 
  362000      1448000    9963.7906    -38260.79    278.53056  0.083354083   -28296.999    3591.7011    1.9635587 -0.094531025 -0.0060952946    1.9658423    185.50055    185.55676 -0.033450668 
  364000      1456000    9764.2897   -38173.218    272.95366 -0.036484467   -28408.928    3705.4679    1.9134487 -0.092242204 -0.0053086928    1.9156782    185.42055    185.47533  0.023551355 
  366000      1464000    9867.5066   -38181.789    275.83901  0.056898615   -28314.282    3611.0483   0.92170127 -0.044580557 -0.0034360487   0.92278516    185.34055    185.36696  -0.04214962 
  368000      1472000    9746.3909   -38301.914    272.45331 -0.080542443   -28555.523    3850.5542   -1.4069418  0.066537888 0.0045313056   -1.4085216    185.26055    185.22035  -0.17160065 
  370000      1480000    9787.0809   -38036.681    273.59077 -0.060459133     -28249.6    3546.9499    1.5656401   -0.0760614 -0.0052460632    1.5674954    185.18055    185.22538  -0.10099776 
  372000      1488000    9827.1556   -38219.159    274.71103 -0.074917666   -28392.004    3688.2367    4.9520817  -0.24268736 -0.017657585    4.9580563    185.10055    185.24225   0.20292855 
  374000      1496000    9885.8152   -38136.577    276.35082 -0.010244267   -28250.762    3547.0091   -6.0243748   0.30312502  0.020074163   -6.0320295    185.02055    184.84825   -0.1283889 
  376000      1504000     9783.135   -38195.946    273.48047  -0.11428749   -28412.811    3709.9477    5.3137224  -0.26475276 -0.018177977     5.320345    184.94055     185.0926  -0.15847654 
  378000      1512000    9875.5812   -38075.753    276.06473 -0.050744859   -28200.171    3498.0489    1.6147833 -0.079580502 -0.0066408518    1.6167567    184.86055    184.90678  0.032538848 
  380000      1520000    9856.8878   -38112.215    275.54217  0.009597777   -28255.327    3553.4314   -3.1795507   0.15918935 0.0094633886   -3.1835473    184.78055    184.68963  -0.01581086 
  382000      1528000    9753.3651   -38289.041    272.64827 -0.064395359   -28535.676    3832.7269     2.634911  -0.13155554 -0.0068862803    2.6382021    184.70055    184.77597 -0.043112005 
  384000      1536000    9886.0693   -38349.618    276.35792 -0.055029548   -28463.549    3761.5781    3.3021637  -0.16740859 -0.010393637    3.3064209    184.62055    184.71506 -0.030036362 
  386000      1544000    9747.2301   -38298.243    272.47677 -0.013490766   -28551.012    3846.7456    5.1277376  -0.26224061 -0.014214314    5.1344586    184.54055    184.68729  -0.07614566 
  388000      1552000    9950.8608   -38174.335    278.16912  0.030579429   -28223.474    3521.1245   0.23170497 -0.011611961 -0.00067718322   0.23199674    184.46055    184.46722  -0.01725282 
  390000      1560000    9910.0827   -38189.014     277.0292 -0.028480883   -28278.931    3575.9793   0.17618826 -0.0089150937 -0.00058282003   0.17641463    184.38055    184.38563  -0.11761568 
  392000      1568000    9854.0333   -38126.396    275.46237 -0.083446654   -28272.363    3570.8827   -1.4779677  0.077168539 0.0050916465   -1.4799897    184.30055    184.25831  0.020617181 
  394000      1576000    9726.3542   -38302.257     271.8932   0.02167186   -28575.903    3871.7354    3.7496989  -0.19674371 -0.010038117    3.7548703    184.22055    184.32787 -0.081021377 
  396000      1584000    9857.7841   -38290.053    275.56723 -0.016399761   -28432.269    3728.1501    2.6599608  -0.13664032 -0.0093126799    2.6634844    184.14055    184.21669 -0.016284825 
  398000      1592000    9847.8882   -38168.154    275.29059 -0.0023483095   -28320.266    3616.8345    2.4114707  -0.12746279  -0.01129018    2.4148633    184.06055    184.12959   0.20303227 
  400000      1600000    9891.2548   -38175.853    276.50287 -0.055092585   -28284.598    3581.6956   -2.6727806   0.14132879  0.011464818   -2.6765391    183.98055    183.90412  -0.21441586 
  402000      1608000    9730.3728    -38274.45    272.00554  -0.10616722   -28544.078    3840.5944    1.1977577 -0.062692857 -0.0036383502    1.1994028    183.90055    183.93486  -0.27368461 
  404000      1616000    9795.2523   -38321.273     273.8192  0.041335857   -28526.021    3821.2466    2.2880195  -0.12095556 -0.0068383325    2.2912247    183.82055    183.88606   0.11543989 
  406000      1624000    9945.4628   -38328.886    278.01822  0.030463733   -28383.423    3678.0833    -6.815743   0.36253745  0.027642759    -6.825434    183.74055    183.54558 0.0031846108 
  408000      1632000    9858.1597   -38371.324    275.57773 -0.050314444   -28513.165    3809.4621   -2.7111641   0.14327833 0.0096031505   -2.7149644    183.66055    183.58302  -0.16381992 
  410000      1640000    9706.0941   -38290.394    271.32684 0.0042653122     -28584.3    3881.9221   -3.7027689   0.20078918  0.013571453   -3.7082338    183.58055    183.47464  0.020856061 
  412000      1648000    9905.5204   -38375.299    276.90166  0.057215516   -28469.778    3763.9885    4.5797904  -0.24893246 -0.016624412    4.5865808    183.50055    183.63164   0.11897647 
  414000      1656000    9878.3047   -38328.335    276.14086  0.073755242    -28450.03    3741.0601   -6.1594019   0.33536607  0.021311346   -6.1685619    183.42055    183.24435  -0.05297519 
  416000      1664000     9926.842   -38236.444    277.49769 -0.021756508   -28309.602    3608.6698   0.71963152 -0.039135514 -0.0018225616   0.72069718    183.34055    183.36118  -0.27662392 
  418000      1672000    9888.1731   -38334.259    276.41673 -0.043348065   -28446.085    3741.8196  -0.53921888   0.03044637 0.0010033341  -0.54007869    183.26055    183.24516   0.03658729 
  420000      1680000    9927.8911   -38358.439    277.52702 -0.021529647   -28430.548    3727.4761  -0.43532788  0.024026294 0.0013271702  -0.43599242    183.18055    183.16813   0.11688648 
  422000      1688000    9788.8515   -38239.515    273.64026  0.053015267   -28450.663    3744.9354   -2.8120648   0.15994817  0.010814498   -2.8166307    183.10055    183.02012  -0.05958987 
  424000      1696000    9826.0315   -38169.368     274.6796 -0.073067054   -28343.337    3640.1026    4.3317809  -0.24183461 -0.012538199    4.3385443    183.02055    183.14455   -0.2049793 
  426000      1704000    9897.0017   -38303.464    276.66353  0.045064298   -28406.463    3701.1628  -0.18681798  0.010545613 0.00062091514  -0.18711642    182.94055    182.93525   0.01159477 
  428000      1712000    9925.4114   -38317.165     277.4577  -0.11732961   -28391.754    3686.8774   -7.8089574   0.44661106  0.028100207   -7.8217687    182.86055    182.63711  0.025571521 
  430000      1720000     9843.816   -38365.085    275.17676  0.098248268   -28521.269    3815.4906  -0.17798783  0.010038619 0.00061440434  -0.17827175    182.78055     182.7755  -0.17119591 
  432000      1728000    9805.6385   -38259.937    274.10953 -0.076394753   -28454.299    3750.3885  -0.20400081  0.011640882 0.00079437564  -0.20433422    182.70055    182.69475 -0.093614677 
  434000      1736000    9640.5681   -38248.558    269.49511   0.07279533    -28607.99    3902.3442    5.0977431  -0.29007656 -0.017587096    5.1060199    182.62055    182.76648   0.15523014 
  436000      1744000    9880.7215   -38394.737    276.20843  0.075409469   -28514.016    3807.4147   -3.8354161   0.22004683  0.019790446   -3.8417742    182.54055    182.43083 -0.091207658 
  438000      1752000    9948.1326   -38345.661    278.09285 0.0082914287   -28397.528    3691.6264   -1.3869461   0.07989951 0.0055572954   -1.3892567    182.46055     182.4209  -0.27091006 
  440000      1760000      9845.22    -38258.87    275.21601 -0.0082709556    -28413.65    3709.9883   -2.0667932   0.11861163 0.0072688074   -2.0702067    182.38055    182.32144 0.0086577963 
  442000      1768000    9892.9521   -38351.123    276.55032 -0.018483658   -28458.171    3753.6503    1.5270047 -0.090329221 -0.0061049251    1.5296862    182.30055     182.3443  0.050164166 
  444000      1776000    9907.4695   -38258.504    276.95614  -0.09789498   -28351.035    3649.9938   -2.5421591   0.14952043  0.010116942   -2.5465726    182.22055    182.14783 -0.022577076 
  446000      1784000    9834.9345   -38403.455    274.92848 -0.098115257    -28568.52    3865.8797   -3.6561561   0.21597021  0.014370274   -3.6625575    182.14055    182.03595   -0.2353975 
  448000      1792000    9869.8612   -38314.814    275.90483  0.071530203   -28444.952    3738.8394    1.8378501  -0.10855304 -0.009082009    1.8410756    182.06055    182.11319 -0.049299496 
  450000      1800000    9831.1407   -38344.765    274.82243 0.0022290558   -28513.624    3808.0828   -1.7690704     0.105463 0.0056504491   -1.7722202    181.98055    181.92996   0.11295188 
  452000      1808000    9880.7271   -38361.883    276.20858 0.0047608905   -28481.156    3777.8245   -1.3249989  0.080160102 0.0044002863   -1.3274287    181.90055    181.86267  -0.12128153 
  454000      1816000    9807.9092   -38460.592    274.17301   0.07769046   -28652.683    3945.9532    0.1232109 -0.0076236819 -0.00051730984   0.12344762    181.82055    181.82412 -0.0083755987 
  456000      1824000    9817.0873   -38436.041    274.42958  0.093654487   -28618.953    3912.3504   -5.4898069   0.33240335  0.021122614   -5.4999016    181.74055    181.58345 -0.033267027 
  458000      1832000    9807.7331   -38518.971    274.16809 -0.029693419   -28711.238     4005.277    -1.707339   0.10350987 0.0054374777   -1.7104825    181.66055    181.61172 -0.070111346 
  460000      1840000    9858.9339   -38425.216    275.59937 0.0086359103   -28566.282    3860.5164   -1.6114232  0.099007367 0.0044529159    -1.614468    181.58055    181.53446 -0.0093295653 
  462000      1848000    9819.9271   -38522.312    274.50896  -0.10538642   -28702.385    3998.5962   -0.1297278 0.0079978535 0.00039539325  -0.12997471    181.50055    181.49688  0.040307152 
  464000      1856000    9907.9902   -38305.373     276.9707  0.029406065   -28397.383    3693.0334    -1.184876  0.073796685 0.0034399983   -1.1871768    181.42055    181.38667  -0.15777481 
  466000      1864000    9798.0776   -38503.499    273.89818 -0.020964622   -28705.421    3999.6345    2.1862946  -0.13704151 -0.0067808885    2.1905959    181.34055    181.40318 -0.023483281 
  468000      1872000    9846.1996   -38333.337    275.24339   0.05416085   -28487.137    3782.4355   -3.9202555   0.24925423  0.013615847    -3.928195    181.26055    181.14836 -0.096059317 
  470000      1880000    9931.8967   -38525.784    277.63899  0.052822696   -28593.887    3887.8935    3.3797984  -0.21598641 -0.0086609979    3.3867038    181.18055    181.27735 -0.016356487 
  472000      1888000    9790.6328   -38346.397    273.69006 -0.050541798   -28555.764    3851.7113    3.6201677  -0.22931888 -0.0064851792    3.6274293    181.10055    181.20423    0.1114834 
  474000      1896000    9743.6026   -38319.044    272.37536  0.088869891   -28575.442    3869.5706    -3.895594   0.24322077  0.010512015   -3.9031935    181.02055    180.90907 -0.014543688 
  476000      1904000    9778.9983   -38242.567    273.36483 -0.021612488   -28463.569    3761.8498   -4.9187436     0.315406  0.017895583   -4.9288782    180.94055    180.79977  -0.18426405 
  478000      1912000    9764.2879   -38514.524    272.95361 -0.060869677   -28750.236    4045.5529    1.8474249  -0.11838532 -0.0043426746    1.8512192    180.86055    180.91348 -0.049752683 
  480000      1920000    9865.4736   -38167.977    275.78218   0.01682828   -28302.503    3600.5017   0.37185778 -0.023989449 -0.0010200912   0.37263218    180.78055    180.79124  0.057448974 
  482000      1928000    9772.2562   -38347.553    273.17635 -0.024440318   -28575.296    3869.4282    -6.328907   0.41159733  0.023558709   -6.3423207    180.70055    180.51938  -0.28187076 
  484000      1936000     9867.857   -38327.691    275.84881  0.077579917   -28459.834    3753.7679    5.9907851  -0.39161248 -0.012265505    6.0035836    180.62055    180.79212 -0.089444916 
  486000      1944000    9774.9064   -38502.391    273.25044 -0.015657059   -28727.485    4022.0948    1.2961445 -0.084852538 -0.004583898     1.298927    180.54055     180.5777   0.21944937 
  488000      1952000     9923.407   -38342.776    277.40167  0.014294207   -28419.369    3713.3552    -5.597887   0.36434321  0.019500858   -5.6097651    180.46055    180.30031  -0.15023947 
  490000      1960000    9789.5696   -38380.521    273.66034 -0.011678351   -28590.951    3886.7323    6.8031782  -0.44152414 -0.028566961    6.8175504    180.38055    180.57538  -0.23506823 
  492000      1968000     9742.356   -38459.814    272.34052 -0.033296415   -28717.458    4012.0026    3.5472674  -0.23617366 -0.012804179    3.5551439    180.30055    180.40217  0.092026913 
  494000      1976000    9859.7526   -38304.908    275.62225  -0.10525052   -28445.156     3743.139   -5.7873045   0.38185531  0.022972773   -5.7999341    180.22055    180.05488   0.19603373 
  496000      1984000    9867.6078   -38322.523    275.84184  -0.11041636   -28454.915      3750.56   -7.9768617    0.5311246  0.025479753   -7.9945647    180.14055    179.91218    -0.296413 
  498000      1992000    9857.2628   -38392.736    275.55265  -0.01698634   -28535.473    3830.7581    5.5522879  -0.37259278 -0.020921944    5.5648148    180.06055    180.21959  -0.11006407 
  500000      2000000    9746.4618    -38314.77    272.45529  0.065928126   -28568.308    3864.6897   -3.9444236   0.26655347  0.013465678   -3.9534428    179.98055    179.86764   0.14762604 
  502000      2008000    9772.5021   -38250.687    273.18323  0.020223537   -28478.185    3776.5518   -5.7077566   0.38315143   0.02150454   -5.7206427    179.90055    179.73714  -0.20518521 
  504000      2016000    9889.8331   -38405.476    276.46313  0.059677416   -28515.643    3809.3833    3.8605008  -0.26268343 -0.021285303    3.8694861    179.82055    179.93115  -0.13417662 
  506000      2024000    9801.8064   -38402.028    274.00241  0.076375369   -28600.222      3894.77    1.9784534   -0.1354636 -0.0074977099    1.9830997    179.74055    179.79725   0.10027358 
  508000      2032000    9994.1221   -38451.176    279.37846 -0.047607326   -28457.054    3751.7303    1.4741142  -0.10032874 -0.0058631353    1.4775361    179.66055    179.70281 -0.014156782 
  510000      2040000    9827.3162   -38359.622    274.71552 -0.0057526616   -28532.306    3829.5375    7.5367381  -0.52086681 -0.034828834    7.5547956    179.58055    179.79644 -0.027422914 
  512000      2048000    9855.3081     -38496.2    275.49801 -0.027134378   -28640.892    3936.6314  -0.31892933  0.021800265 0.0012575811  -0.31967601    179.50055    179.49146 -0.0075960443 
  514000      2056000    9855.9439    -38507.67    275.51578   -0.0834059   -28651.726     3946.141   -3.4231009   0.23579587   0.01235075   -3.4312347    179.42055    179.32256  -0.11334588 
  516000      2064000     9843.978   -38522.035    275.18129 -0.028357653   -28678.058    3976.3124  -0.99488022  0.069037221 0.0039086435  -0.99728033    179.34055     179.3121  0.036263086 
  518000      2072000    9763.7109   -38421.263    272.93748  0.032645297   -28657.553    3954.0411    1.4243634 -0.098804755 -0.0036515271    1.4277908    179.26055    179.30139  0.083627896 
  520000      2080000    9944.1747   -38452.836    277.98221 -0.049214904   -28508.661    3802.1883   -2.1572814   0.15022821 0.0070227038   -2.1625172    179.18055    179.11881  -0.12457746 
  522000      2088000     9844.642   -38339.614    275.19985 -0.094770146   -28494.972    3792.3232    6.5923874  -0.46530741 -0.021762925    6.6088241    179.10055    179.28942 -0.027738882 
  524000      2096000     9914.541   -38438.477    277.15382 -0.065237423   -28523.936     3820.795   0.91072423 -0.064679007 -0.0029637343   0.91302288    179.02055    179.04668 -0.043228811 
  526000      2104000    9775.5456   -38345.954    273.26831 -0.010835884   -28570.408    3866.1959   -3.4097119   0.24232515  0.010819523   -3.4183291    178.94055    178.84293 -0.037053071 
  528000      2112000    9717.6261   -38433.192    271.64921  -0.10451041   -28715.566    4011.9154    3.6552023  -0.25899176 -0.013619505    3.6643916    178.86055    178.96529  0.029671734 
  530000      2120000    9813.8352   -38379.631    274.33867 -0.0099406537   -28565.796    3861.0987   -5.2048396   0.37508925  0.021273579   -5.2183809    178.78055     178.6315 -0.083200759 
  532000      2128000    9716.3896   -38265.684    271.61465 -0.033555341   -28549.295    3845.1543  -0.96571531  0.069839488 0.0035241774  -0.96824379    178.70055    178.67293 -0.020076378 
  534000      2136000    9830.6045    -38238.28    274.80744  -0.13688244   -28407.675    3706.0338    2.0727324  -0.15121828 -0.0089200843    2.0782604    178.62055    178.67997 -0.024392542 
  536000      2144000    9843.4678    -38382.05    275.16702 -0.043503412   -28538.582    3832.5912   -4.3507643   0.31666689  0.018047852   -4.3623106    178.54055    178.41595  -0.06229973 
  538000      2152000    9875.4487   -38360.891    276.06103   0.11273884   -28485.442    3779.6988    3.3196161  -0.23901592 -0.014196755      3.32824    178.46055    178.55568  -0.18827733 
  540000      2160000    9973.8439   -38333.262    278.81159  0.015665567   -28359.418    3654.9119   -3.0331952   0.21984561  0.014852924   -3.0411882    178.38055     178.2937  0.057042132 
  542000      2168000    9765.2254   -38294.832    272.97981  0.063328532   -28529.606    3826.8409    -5.435832   0.39846531  0.021261581   -5.4504583    178.30055    178.14486  0.072541772 
  544000      2176000    9845.4051   -38328.881    275.22118  0.063852827   -28483.476    3779.6577  -0.40375437  0.030110786  0.001815527  -0.40487967    178.22055    178.20902  -0.16382018 
  546000      2184000    9881.7175   -38592.611    276.23627 -0.036514018   -28710.894    4005.2445    4.2279674  -0.31387505 -0.014439786    4.2396267    178.14055    178.26172  0.022340148 
  548000      2192000    9761.1729   -38534.332    272.86653  0.044168895   -28773.159     4066.136   -7.2099447   0.53262065  0.029525514   -7.2296514    178.06055    177.85403  0.078181658 
  550000      2200000     9834.189    -38421.83    274.90764  0.011334567   -28587.641    3883.0497   -2.6346147   0.19680739 0.0082740888   -2.6419682    177.98055    177.90511  -0.17609274 
  552000      2208000    9821.5217    -38474.66    274.55354 -0.031478353   -28653.138    3947.7632    3.9619074  -0.29800146 -0.024850247    3.9731767    177.90055    178.01411 -0.011911364 
  554000      2216000    9878.7425   -38305.973     276.1531 -0.053574859   -28427.231     3723.055   -3.0075902   0.22939295  0.013726109   -3.0163568    177.82055    177.73441  0.095594048 
  556000      2224000    9786.0984   -38267.586     273.5633 -0.096980819   -28481.487    3777.2177  -0.56852977  0.043461111 0.0022488663  -0.57019297    177.74055     177.7243  -0.17951276 
  558000      2232000     9759.419   -38440.739     272.8175 -0.071355539    -28681.32    3978.2918    1.8990307  -0.14490607 -0.0075964666    1.9045664    177.66055    177.71501 -0.047341639 
  560000      2240000    9847.2235   -38540.655    275.27201   -0.1160767   -28693.432    3987.0822   -4.1899192   0.31732708  0.019509177   -4.2019638    177.58055    177.46054   0.22239044 
  562000      2248000    9855.4746   -38441.297    275.50267 -0.029191537   -28585.822    3882.1128  -0.30254062  0.023307013  0.001403023  -0.30344029    177.50055    177.49192  -0.11949411 
  564000      2256000    9841.7008   -38276.222    275.11763   0.11425047   -28434.521    3728.8716     1.055638 -0.081524203 -0.0051334049    1.0587937    177.42055    177.45084 -0.096856332 
  566000      2264000    9899.1754   -38318.191    276.72429   0.15324001   -28419.015    3712.1736  -0.63094963  0.048575655 0.0032830704  -0.63282526    177.34055    177.32251 -0.023327462 
  568000      2272000     9758.892   -38363.238    272.80277 -0.010738798   -28604.346    3901.8509   -9.8174707   0.75184469  0.054875855   -9.8463706    177.26055    176.97927   0.02941892 
  570000      2280000    9810.2369   -38466.679    274.23808 -0.042610139   -28656.442    3952.1977   0.97501356 -0.073654844 -0.0038978208   0.97779941    177.18055    177.20853  -0.12446069 
  572000      2288000    9776.3447   -38342.026    273.29065 -0.077362491   -28565.681    3862.0083    7.1577592  -0.55691422 -0.028824857    7.1794499    177.10055    177.30572  0.065358999 
  574000      2296000    9907.6254    -38378.27     276.9605 -0.066701687   -28470.645    3766.7357   0.37714147 -0.029246182 -0.0016018497   0.37827714    177.02055     177.0314 -0.021847226 
  576000      2304000    9845.2566   -38374.223    275.21703 -0.073488012   -28528.966    3825.9232    2.9189576   -0.2262708 -0.015798543    2.9277571    176.94055    177.02424  -0.16616597 
  578000      2312000    9800.3465   -38361.453     273.9616  0.048076263   -28561.107    3858.1938    1.4189451  -0.10932505 -0.0060395091    1.4231633    176.86055    176.90125 -0.0066614907 
  580000      2320000    9857.7342   -38339.316    275.56583  -0.12385556   -28481.582    3779.2959   -2.2728912   0.17703652  0.011393201    -2.279804    176.78055    176.71545 -0.062194729 
  582000      2328000    9925.4258   -38362.464     277.4581 -0.026969583   -28437.038    3733.5991    1.3481394  -0.10560713 -0.0054619567    1.3522805    176.70055    176.73923  0.044738793 
  584000      2336000    9935.6245   -38208.264     277.7432 -0.029601115    -28272.64    3569.6779  -0.46687622  0.036984894 0.0023234801  -0.46834462    176.62055    176.60721  0.020857085 
  586000      2344000    9896.6447   -38390.117    276.65355 -0.091560266   -28493.472    3789.7079   0.64766403 -0.051581541 -0.0022931716   0.64971887    176.54055    176.55916  -0.09435786 
  588000      2352000    9884.8498   -38380.578    276.32383 0.0041043344   -28495.728    3791.7103   0.93720781 -0.074226042 -0.0032414432   0.94014813    176.46055    176.48745 -0.043108088 
  590000      2360000    9803.0639   -38501.718    274.03756 -0.034654537   -28698.654    3991.0597    3.2369933  -0.26070979 -0.017098728    3.2475202    176.38055    176.47338  0.062284716 
  592000      2368000    9815.4896     -38434.4    274.38491  0.080282494   -28618.911    3911.8908   -3.5666404   0.28664256  0.014519171   -3.5781698    176.30055    176.19836 -0.065958064 
  594000      2376000    9863.5151    -38520.37    275.72743 -0.055189385   -28656.855    3950.2704    3.0753075  -0.24618588 -0.012482993    3.0851709    176.22055    176.30874 -0.082969165 
  596000      2384000     9954.506   -38584.627    278.27102 -0.089206837   -28630.121    3924.7549   -1.1890385  0.097213246  0.004871249   -1.1930158    176.14055    176.10651  -0.11767972 
  598000      2392000    9823.5445   -38499.996    274.61008 -0.028903719   -28676.451     3970.854   -2.6882089   0.21848979  0.011669194   -2.6970986    176.06055    175.98353  0.028147208 
  600000      2400000    9747.0787   -38349.493    272.47254 -0.052099117   -28602.415    3898.9989  -0.28168094  0.022702504 0.0012764595  -0.28259721    175.98055    175.97252  0.017793038 
  602000      2408000    9718.8848   -38443.461     271.6844  -0.16211188   -28724.576    4021.4667   -1.4538979   0.12034443 0.0066069193    -1.458885    175.90055    175.85891  -0.12197852 
  604000      2416000    9732.4899   -38509.125    272.06472 0.0089267389   -28776.636    4069.3666    1.4170165  -0.11913723 -0.0072241003    1.4220343    175.82055    175.86122 -0.013147851 
  606000      2424000    9734.4454   -38512.764    272.11938 -0.00059007018   -28778.319    4073.6406  -0.20422134  0.016753126  0.000749309  -0.20490872    175.74055    175.73474   0.15180593 
  608000      2432000    9726.4254   -38641.101    271.89519 -0.031667229   -28914.675     4210.192  -0.42141388  0.034758516 0.0020234311  -0.42284975    175.66055    175.64851  -0.15449036 
  610000      2440000    9845.2698   -38333.165     275.2174  0.014841432   -28487.896     3783.387    2.1397879  -0.17710196 -0.0098505629     2.147127    175.58055    175.64194  -0.08986978 
  612000      2448000    9910.1657   -38521.358    277.03152  0.019576448   -28611.193    3904.9717   -1.5959807   0.13146585 0.0052445062   -1.6013948    175.50055    175.45484  0.062641781 
  614000      2456000    9889.0236   -38565.631     276.4405 -0.033247086   -28676.608    3972.6959   -5.2522173   0.44188138  0.019360454   -5.2708083    175.42055       175.27 -0.028074804 
  616000      2464000    9677.4583    -38503.66    270.52635  -0.10186802   -28826.202    4121.2152  -0.27140763  0.022970128 0.0012160423  -0.27238063    175.34055    175.33281 -0.075250466 
  618000      2472000    9913.1258    -38610.83    277.11426 -0.041712937   -28697.705    3990.6474    4.5484731  -0.38320722 -0.019708151    4.5646297    175.26055    175.39101 -0.097099549 
  620000      2480000    9946.2046   -38473.963    278.03896  0.078072509   -28527.758    3820.6239   0.82684954 -0.070253694 -0.0033086767   0.82983534    175.18055     175.2043    0.1522797 
  622000      2488000    9865.6504   -38585.316    275.78712 -0.038717167   -28719.666    4013.5933    -3.129161   0.26676516  0.013366863   -3.1405399    175.10055    175.01086  0.013710411 
  624000      2496000    9841.6497   -38432.255     275.1162 -0.040658189   -28590.605    3884.0491    4.5361937  -0.38673737 -0.017135884    4.5526819    175.02055    175.15067  -0.18621755 
  626000      2504000    9884.9875   -38644.007    276.32768  0.018038861   -28759.019    4049.9848   -1.9907785   0.16981979 0.0052929476   -1.9980155    174.94055    174.88351  0.024490921 
  628000      2512000    9806.3231   -38673.372    274.12867 -0.083011993   -28867.049    4160.9378   -3.8717094   0.33351267  0.012020068   -3.8860659    174.86055    174.74956  0.078254242 
  630000      2520000    9931.8162   -38543.096    277.63674 -0.018081974    -28611.28     3906.092    7.5654442  -0.65193629 -0.030454177    7.5935429    174.78055    174.99755 -0.058219955 
  632000      2528000    9879.6677   -38540.245    276.17897  0.032769332   -28660.577    3953.9669  -0.83296961  0.072651942 0.0036141637  -0.83613979    174.70055     174.6767 0.00086912418 
  634000      2536000    9789.5333   -38588.392    273.65932  0.031810203   -28798.859    4091.4921    -5.573681   0.48557754  0.027397479   -5.5948598    174.62055    174.46074  -0.05937856 
  636000      2544000    9927.2062   -38727.842    277.50787 -0.052180947   -28800.636    4091.2822    4.0110118  -0.34390499 -0.020172447    4.0257786    174.54055    174.65561   -0.1199774 
  638000      2552000    9776.1963   -38723.713     273.2865  0.075768793   -28947.516     4237.372    1.3482216   -0.1159618 -0.0073928247    1.3532196    174.46055    174.49926   0.14423471 
  640000      2560000    9797.2947   -38538.077    273.87629  0.029799302   -28740.782    4034.4114   -2.0237591   0.17640112 0.0099105282   -2.0314568    174.38055    174.32255  0.083698585 
  642000      2568000    9898.5686   -38456.697    276.70733  0.067225099   -28558.128    3851.2924    1.7428548  -0.15342093 -0.0079290075    1.7496124    174.30055    174.35058  -0.19605915 
  644000      2576000    9784.7861   -38603.586    273.52662  -0.14876732   -28818.799      4115.48    -2.221797   0.19626766 0.0090411052   -2.2304674    174.22055    174.15686 -0.061132802 
  646000      2584000    9890.6242   -38541.641    276.48525  0.020489216   -28651.017    3944.4933    1.0015738 -0.088211337 -0.0044853855    1.0054608    174.14055    174.16932   0.13223705 
  648000      2592000    9904.2551   -38314.954    276.86629  0.016119223   -28410.699    3703.1218   -4.1132654   0.36685652  0.016065183   -4.1296239    174.06055     173.9426 -0.0050310039 
  650000      2600000    9878.9314   -38700.244    276.15838 -0.058377884   -28821.312    4113.2669   -1.4917156   0.13366215 0.0075460006   -1.4977109    173.98055     173.9378    -0.105881 
  652000      2608000    9859.2262   -38504.211    275.60754 -0.012425161   -28644.985    3939.2932  -0.88755737  0.078695475 0.0039751528  -0.89104818    173.90055    173.87513 -0.0090872344 
  654000      2616000    9820.5318   -38577.154    274.52586  0.048463994   -28756.623    4048.6708  -0.57222113   0.05097694 0.0020518446  -0.57449097    173.82055    173.80418  -0.08853694 
  656000      2624000    9769.8936    -38371.22    273.11031  0.038651306   -28601.327    3897.7956   -3.7429653   0.33465113  0.018302402   -3.7579403    173.74055    173.63322  0.017778612 
  658000      2632000    9815.5335   -38454.718    274.38614  0.019391133   -28639.184    3934.4155    1.9653695   -0.1786841 -0.0078259736    1.9734909    173.66055    173.71698 -0.027098956 
  660000      2640000    9813.1185     -38386.2    274.31863  -0.09107517   -28573.082    3869.1434    -4.055541   0.36069277  0.012070276    -4.071567    173.58055    173.46426 -0.018785785 
  662000      2648000    9827.1671   -38506.032    274.71135  0.046978916   -28678.865    3972.7821   0.51270837 -0.046729678 -0.0020668448   0.51483766    173.50055     173.5153  -0.12610603 
  664000      2656000    9790.8977   -38551.895    273.69746  0.037566808   -28760.998    4056.5074    5.3607177  -0.48807199 -0.018784408    5.3829231    173.42055    173.57439   0.25566566 
  666000      2664000    9752.3594   -38339.015    272.62015  0.085520573   -28586.656    3879.6597   -5.1712158   0.46921865  0.025184188   -5.1925209    173.34055    173.19223  0.018911533 
  668000      2672000    9881.5288   -38605.403    276.23099 -0.036457973   -28723.874    4015.1649    4.0987341  -0.37101763 -0.015134489    4.1155199    173.26055    173.37818  -0.31439463 
  670000      2680000    9805.5364   -38422.611    274.10668  -0.11397405   -28617.075    3912.0344    4.3901381  -0.40385281 -0.021015316    4.4087244    173.18055    173.30656   0.27420357 
  672000      2688000    9790.7347   -38504.421    273.69291  0.025106446   -28713.686    4006.8828    -5.979407   0.55786512  0.029764284   -6.0054482    173.10055    172.92901   0.05589826 
  674000      2696000    9848.5755   -38397.559    275.30981   0.10245729   -28548.984    3842.2411     4.373981  -0.40478452 -0.024984442    4.3927423    173.02055     173.1461   -0.3586043 
  676000      2704000    9726.5599   -38463.343    271.89895  -0.07860122   -28736.783    4031.2899    3.3970328   -0.3135673 -0.016297186    3.4115132    172.94055    173.03806   0.18231666 
  678000      2712000    9998.3056   -38442.687     279.4954  0.016889426   -28444.382    3734.1704   -12.360113     1.141004  0.057464734     -12.4128    172.86055    172.50594   0.15498144 
  680000      2720000    9787.0499   -38483.979     273.5899   0.02377645   -28696.929     3988.152   -2.2662479   0.21406598  0.010173229   -2.2763583    172.78055    172.71555  -0.20561667 
  682000      2728000    9854.6862   -38601.513    275.48063 -0.040973573   -28746.827    4038.1367    8.3346357  -0.79092559 -0.041367599    8.3721818    172.70055     172.9398 -0.033118462 
  684000      2736000    9817.4676   -38529.574    274.44021 -0.071262483   -28712.106    4005.7831   -1.0650877   0.10033612 0.0047205487   -1.0698137    172.62055    172.59003   0.24773724 
  686000      2744000    9868.1098   -38591.857    275.85587  0.082840868   -28723.747    4014.7923    -5.202085   0.49407506  0.020952473    -5.225537    172.54055    172.39129  -0.29998674 
  688000      2752000    9776.1085   -38613.468    273.28404  0.052568364    -28837.36    4127.8524    10.638929   -1.0176107 -0.049920126    10.687602    172.46055    172.76595 -0.085843285 
  690000      2760000    9869.3293   -38613.672    275.88996 -0.063034748   -28744.343    4036.3336   0.38762105 -0.036745308 -0.0010569994   0.38936026    172.38055    172.39172   0.18634851 
  692000      2768000    9939.7109   -38688.533    277.85743 -0.084391017   -28748.823    4041.8273   -5.6267371   0.53941459  0.022255547   -5.6525777    172.30055    172.13909  -0.17491565 
  694000      2776000    9876.9812   -38453.768    276.10387 -0.080477555   -28576.787    3872.1949 -0.067372041 0.0064686679  0.000312227  -0.06768259    172.22055    172.21866  -0.16965305 
  696000      2784000    9834.1828   -38584.491    274.90747   -0.1395021   -28750.308    4045.1444  -0.13340707  0.012756414 0.00064932185  -0.13401714    172.14055    172.13676  0.054056111 
  698000      2792000    9875.5633   -38685.207    276.06423  0.068059697   -28809.644    4102.7925   -5.1386484   0.49230232  0.023582949   -5.1622306    172.06055     171.9131  0.092845997 
  700000      2800000    9900.7434   -38795.468    276.76812  0.052544249   -28894.725    4183.8689   -3.0839044   0.29718741  0.016027489   -3.0982323    171.98055    171.89207  -0.11014879 
  702000      2808000    9807.6045   -38649.345    274.16449   0.18074697   -28841.741    4131.3768   -0.5088821  0.049185452 0.0028992234  -0.51126178    171.90055    171.88598 -0.0087110951 
  704000      2816000    9825.6103   -38410.036    274.66783  0.044874901   -28584.426    3876.9059   0.97405847 -0.093994802 -0.0042891962   0.97859252    171.82055    171.84855    0.0883349 
  706000      2824000     9884.544   -38564.863    276.31528 -0.083592151   -28680.319    3973.7312   -1.5487519   0.15091757 0.0064216015   -1.5561008    171.74055    171.69613 -0.094343428 
  708000      2832000    9870.7178   -38467.696    275.92878  0.012885818   -28596.978    3889.0311    3.6412878  -0.35427713 -0.018002482    3.6585261    171.66055    171.76512 0.0051009804 
  710000      2840000    9821.8537   -38583.907    274.56282 -0.014841411   -28762.053    4054.8586  0.070771139 -0.0068691855 -0.00028646102  0.071104303    171.58055    171.58262  0.068490662 
  712000      2848000    9707.9136   -38641.038     271.3777   0.01259313   -28933.124    4224.4681   -3.6466611    0.3584155  0.013956937   -3.6642589    171.50055     171.3959  -0.14825643 
  714000      2856000    9698.6139   -38667.016    271.11774  -0.02500494   -28968.402     4259.517   0.26107805 -0.025799719 -0.00098358908   0.26235156    171.42055    171.42809  -0.14820667 
  716000      2864000    9858.1724   -38535.627    275.57808  0.039969616   -28677.455    3971.3076     2.476958  -0.24525735 -0.010019408    2.4890907    171.34055    171.41171  0.018893587 
  718000      2872000    9846.3908   -38499.535    275.24874 -0.019828853   -28653.144    3948.7495    4.1033023  -0.40600522 -0.020282264    4.1233896    171.26055     171.3784 -0.042443295 
  720000      2880000    9792.1588   -38389.347    273.73272 -0.0043568953   -28597.188    3892.4742    1.6958631  -0.16857622 -0.0079907682    1.7042399    171.18055    171.22928  -0.15439252 
  722000      2888000    9862.9279     -38300.9    275.71102 -0.0057344819   -28437.973    3732.2423   -2.0877022   0.20999242  0.011088921    -2.098266    171.10055    171.04064  0.044314063 
  724000      2896000    9802.5543   -38567.135    274.02332 -0.093638132   -28764.581    4057.2828   -6.3491993   0.63647016  0.028410087    -6.381084    171.02055    170.83827  0.032455787 
  726000      2904000    9789.2034   -38496.915     273.6501  0.018445604   -28707.711    3999.2566   -2.4530851   0.24374412  0.013757513   -2.4652032    170.94055    170.87016  -0.16306204 
  728000      2912000    9944.6622   -38616.711    277.99584 -0.054169498   -28672.049    3964.3026    2.2619729  -0.23014192 -0.010233314    2.2736735    170.86055    170.92555    -0.138026 
  730000      2920000    9870.7193   -38519.877    275.92882 -0.071554028   -28649.158    3942.3483   0.11247252 -0.011409199 -0.00049737281   0.11305081    170.78055    170.78382   0.12398024 
  732000      2928000    9908.7913   -38457.638     276.9931 -0.026591708   -28548.847    3843.6255   -5.8553728   0.59785609  0.025566805   -5.8858709    170.70055    170.53242 -0.029139536 
  734000      2936000    9839.3843   -38609.022    275.05287  0.027434551   -28769.638    4061.2027     2.931365  -0.29894485 -0.014544167    2.9466049    170.62055    170.70478 -0.079926415 
  736000      2944000     9779.542   -38509.549    273.38003  -0.02259224   -28730.007    4020.6967  -0.84911235  0.086879879 0.0044960794  -0.85355732    170.54055     170.5162  0.081415591 
  738000      2952000    9762.6346   -38501.797    272.90739 -0.070963462   -28739.162    4032.8396   -1.9413843   0.19984758 0.0078707072   -1.9516593    170.46055    170.40483  0.038699728 
  740000      2960000    9781.8057   -38593.348     273.4433 -0.00045630419   -28811.542    4101.6184   -1.0917926   0.11261178 0.0049949906   -1.0975962    170.38055    170.34923  -0.21921965 
  742000      2968000    9814.0104   -38661.745    274.34356  0.049857092   -28847.735    4137.5837    7.0803333  -0.74118121 -0.036300415    7.1191142    170.30055    170.50399  -0.03033078 
  744000      2976000    9891.6624   -38479.789    276.51427 -0.031946054   -28588.126    3882.2602   0.68401357 -0.070790893 -0.0031773247   0.68767435    170.22055    170.24024   0.14720943 
  746000      2984000    9738.3492   -38620.308    272.22851 0.0084941236   -28881.958    4173.9251 -0.066689422 0.0069810197 0.00030734709 -0.067054516    170.14055    170.13868 -0.041171065 
  748000      2992000    9804.5057   -38453.014    274.07787 -0.0071052025   -28648.508    3942.7276    3.7761921  -0.39602992 -0.014137861    3.7969285    170.06055    170.16908 -0.078044304 
  750000      3000000    9834.1173   -38511.717    274.90564  0.068945414   -28677.599    3969.1803    2.9966558  -0.31433241 -0.011479569    3.0131184    169.98055    170.06668   0.13391422 
  752000      3008000    9867.0952   -38574.456    275.82751   0.10378021   -28707.361    3997.9848   -5.7272185   0.60003821  0.024024899   -5.7586157    169.90055    169.73606  -0.12590107 
  754000      3016000     9947.114   -38625.517    278.06438 -0.024643241   -28678.403    3968.9953    9.4524106  -0.99220344 -0.033969092    9.5044036    169.82055    170.09215  -0.14397881 
  756000      3024000    9896.7894   -38531.265    276.65759  -0.12861643   -28634.475    3930.8921    1.1618319  -0.12194091 -0.0056919867    1.1682275    169.74055    169.77397   0.12229243 
  758000      3032000    10004.869   -38543.258    279.67887  -0.12951107   -28538.389    3831.7205   0.23506931 -0.024943355 -0.0010210332   0.23639119    169.66055    169.66735   -0.1879663 
  760000      3040000    9727.9976   -38538.926    271.93914 0.0047546484   -28810.929    4103.7476   0.17009293 -0.018118933 -0.00059059229   0.17105627    169.58055    169.58548 -0.046678856 
  762000      3048000    9886.9983   -38452.415    276.38389   0.11751649   -28565.417    3857.0343   -4.5868247   0.48705456  0.015733925   -4.6126381    169.50055     169.3688 -0.021619533 
  764000      3056000     9898.811   -38575.712     276.7141  0.037746745   -28676.901    3970.4294   0.10767037 -0.011632714 -0.00049087382   0.10829806    169.42055    169.42369  -0.10868266 
  766000      3064000    9829.1976   -38301.731    274.76811   0.10247504   -28472.533    3764.9471   -3.0354359   0.32854257  0.013063022   -3.0531921    169.34055    169.25336 -0.076045509 
  768000      3072000    9886.3232   -38397.057    276.36502 -0.022430048   -28510.734    3807.1821   -1.3812625   0.14922938   0.00517574     -1.38931    169.26055     169.2209  0.040722971 
  770000      3080000    9839.8615   -38522.765    275.06621 -0.089664274   -28682.903    3977.5234   -2.5969637   0.28213232 0.0076629729   -2.6122553    169.18055    169.10596  -0.12373012 
  772000      3088000     9952.788   -38483.107    278.22299  -0.05323432   -28530.319    3824.5219   0.40736917 -0.043813953 -0.0019509925   0.40972321    169.10055     169.1123 -0.011964951 
  774000      3096000    9857.3693   -38529.417    275.55563 -0.042659747   -28672.048    3967.1034   -2.3265663    0.2544585   0.01007082   -2.3404618    169.02055    168.95372  0.072303066 
  776000      3104000    9848.6416   -38498.179    275.31165  0.048689506   -28649.537    3942.8612   -3.9365738    0.4254688  0.016081118   -3.9595323    168.94055    168.82746 -0.090359142 
  778000      3112000    9795.0848    -38439.18    273.81451 -0.056225385   -28644.095    3937.8864   -1.2708454   0.13896202 0.0048419754   -1.2784295    168.86055    168.82407  -0.18229363 
  780000      3120000    9976.2085   -38357.984     278.8777  0.011013695   -28381.775    3678.2963    2.2863076  -0.25271294  -0.01121721    2.3002592    168.78055    168.84631   0.10007792 
  782000      3128000    9873.4553   -38600.997     276.0053  -0.10860435   -28727.542    4021.4801   0.98234482   -0.1082691 -0.0041427255   0.98830193    168.70055    168.72883  0.038204996 
  784000      3136000    9815.7752   -38459.865     274.3929  0.069895075   -28644.089     3937.766     6.384918  -0.69893708 -0.030757019     6.423133    168.62055    168.80411  -0.11661375 
  786000      3144000    9855.1631   -38584.516    275.49396  0.014587984   -28729.353    4024.5625     1.017901  -0.11249615 -0.0042956834    1.0241075    168.54055    168.56985 0.0024116108 
  788000      3152000    9859.1083    -38497.79    275.60424 -0.089107461   -28638.682    3931.6407   -8.2839345   0.92217185  0.042223781   -8.3352117    168.46055    168.22244  0.037578865 
  790000      3160000    9758.1276   -38548.842     272.7814  0.044352605   -28790.715    4082.3223    4.7729378  -0.53615599 -0.020311731    4.8030002    168.38055    168.51782  -0.12288763 
  792000      3168000    9926.4813   -38665.396    277.48761 -0.024120055   -28738.915    4029.4035   0.60046993 -0.067803503 -0.0022369243   0.60429005    168.30055    168.31786 -0.033991371 
  794000      3176000     9827.805   -38479.001    274.72918  0.003634622   -28651.196    3943.4408   -1.5321713   0.17338934 0.0062220943   -1.5419635    168.22055    168.17654 -0.040630719 
  796000      3184000    9856.2707   -38688.264    275.52492 -0.056016418   -28831.993     4122.477   -1.9153688   0.21431609 0.0077558763   -1.9273373    168.14055    168.08552 -0.031899772 
  798000      3192000    9829.9662   -38616.278     274.7896 -0.00010157692   -28786.312    4078.5881   0.87738859 -0.098441269 -0.0036167367   0.88290118    168.06055    168.08582 -0.055912516 
  800000      3200000    9731.5158    -38474.64    272.03749 -0.069946621   -28743.124    4035.6244    1.9159249  -0.21634851 -0.0068744913    1.9281136    167.98055    168.03568   0.14753871 
  802000      3208000    9781.1154   -38605.232    273.42401  0.045542675   -28824.117      4114.15    1.7765303  -0.20083195 -0.0062138669    1.7878568    167.90055    167.95167  0.071928247 
  804000      3216000    9719.5874   -38349.335    271.70404   0.11633921   -28629.748    3923.0057    5.9920476  -0.68276638 -0.026098642    6.0308777    167.82055     167.9929  -0.21685833 
  806000      3224000    9878.6792   -38542.626    276.15133 -0.023433314   -28663.947    3953.9192    3.8154589  -0.43741634  -0.01448519    3.8404778    167.74055    167.85032 -0.045159779 
  808000      3232000    10021.539   -38601.622    280.14487 -0.044409279   -28580.083    3873.8813   -2.3450926   0.26815915 0.0092748509    -2.360393    167.66055    167.59315  0.084500151 
  810000      3240000    9931.9139   -38625.086    277.63947  0.047516388   -28693.172    3985.0998   -1.9865616   0.22666402  0.009011623   -1.9994712    167.58055    167.52346  -0.15812486 
[...]
 4182000      7083200    9694.4374   -33492.034    271.00099   0.90790472   -23797.596    9182.1866    566.26617   -350.69927   -26.676112    666.60255    32.761895    51.807722    16542.637 
 4184000      7091200    9816.8842    -33552.77     274.4239   0.71224917   -23735.886    9157.6464    565.34101   -353.90445   -29.484786    667.62877    32.681895    51.757042    16596.012 
 4186000      7099200    9754.2215    -33624.87    272.67221   0.78107891   -23870.648    9343.1595     567.1199   -351.15949   -26.849258    667.57686    32.601895    51.675559    16649.245 
 4188000      7107200    9760.8969   -33286.741    272.85882   0.78506529   -23525.844    9042.2221    567.70901   -351.46232   -26.863563    668.23719    32.521895    51.614426    16702.572 
 4190000      7115200    9816.3665   -33435.356    274.40943   0.74120709   -23618.989    9193.4265    566.10897   -353.18735   -29.911163    667.91866    32.441895    51.525325    16755.929 
 4192000      7123200    9792.9724   -33453.804    273.75546    0.7942263   -23660.831    9285.6397    567.27235   -351.69084   -28.693008    668.06261    32.361895    51.449438    16809.538 
 4194000      7131200    9947.0284   -33357.338    278.06199    0.8736395    -23410.31    9051.2873    568.76113   -353.25709   -26.781929    670.07243    32.281895    51.426861    16863.123 
 4196000      7139200    9904.4561   -33410.153    276.87191   0.74069699   -23505.696    9246.6951    566.24906   -352.40558   -28.632554    667.56836    32.201895    51.275316    16916.521 
 4198000      7147200    9767.3598   -33275.304    273.03948   0.70875811   -23507.944    9199.8148    570.73648   -355.80069   -29.276331    673.19489    32.121895    51.356075    16970.067 
 4200000      7155200    9874.2836   -33317.085    276.02846   0.87630293   -23442.801    9245.2203    570.13786   -350.78283   -28.947525    670.03264    32.041895    51.185724    17023.821 
 4202000      7163200    9860.0243    -33397.78    275.62985   0.77458015   -23537.755    9257.6656    574.62645   -356.89883   -29.293028    677.07489    31.961895    51.306932    17077.631 
 4204000      7171200    9860.7029    -33145.97    275.64882   0.82671694   -23285.267    9042.6075    576.06702   -356.39435   -29.405244    678.03747    31.881895    51.254434    17131.621 
 4206000      7179200    9816.0433   -33237.353    274.40039    0.8418543    -23421.31    9214.3259    576.65915   -357.29452   -29.554418    679.02033    31.801895    51.202516    17185.749 
 4208000      7187200     9798.018   -33171.127    273.89651   0.68435086   -23373.109    9313.6725    573.91165   -352.41044   -29.636718    674.12613    31.721895    50.982681    17239.821 
 4210000      7195200    9948.4523   -33132.603    278.10179   0.81873627   -23184.151    9071.3721    578.58979    -355.5219   -27.959338     679.6644    31.641895    51.060918    17293.919 
 4212000      7203200    9848.0688   -33243.918    275.29564   0.71403161   -23395.849    9286.9438    580.92719   -356.36531   -30.932291     682.2239    31.561895    51.054046    17348.134 
 4214000      7211200    9685.5419   -33271.173    270.75232   0.78107649   -23585.631    9509.3639    582.16129   -356.62603   -30.246554    683.38038    31.481895    51.007089    17402.484 
 4216000      7219200    9843.1737     -33234.7     275.1588   0.76630761   -23391.526    9276.1343    585.32559   -360.84843   -27.654194    688.17322    31.401895    51.064027    17456.993 
 4218000      7227200    9825.0833   -33147.024     274.6531   0.78421492   -23321.941    9368.1782    581.09544   -357.02886   -31.597348     682.7444    31.321895    50.828917    17511.665 
 4220000      7235200    9876.9332   -33295.232    276.10253    0.8910559   -23418.298    9363.5852    587.28932   -361.72299   -30.508905    690.42238    31.241895    50.968288    17566.488 
 4222000      7243200    9777.9657   -33065.346    273.33596   0.83507387    -23287.38     9411.673    582.26614   -358.10819    -27.98435    684.14798    31.161895     50.70902     17621.28 
 4224000      7251200     9840.548   -33116.904     275.0854   0.79481082   -23276.356    9439.7654    583.04158   -358.39124   -27.739459    684.94616    31.081895    50.651825    17676.075 
 4226000      7259200    9911.3598   -32961.051     277.0649   0.88319141   -23049.691    9282.4805    582.93078   -357.30062   -27.902157    684.28836    31.001895    50.553031    17730.972 
 4228000      7267200    9841.6349   -32990.052    275.11579   0.82776064   -23148.417    9284.6899     588.0424   -363.71408   -28.914508     692.0389    30.921895    50.694475    17786.197 
 4230000      7275200     9877.874   -33027.522    276.12883   0.88959029   -23149.648    9348.1609    587.93381   -363.11138   -27.377159    691.56746    30.841895    50.601005     17841.46 
 4232000      7283200    9744.9736   -32976.667    272.41369   0.77509816   -23231.694    9542.2214     586.2826   -360.43831   -27.072322    688.74958    30.761895    50.440494     17896.76 
 4234000      7291200    9853.1451   -32920.618    275.43755   0.74939857   -23067.472     9250.142    594.34638   -364.94488   -28.463557    698.02762    30.681895    50.625581    17952.224 
 4236000      7299200    9822.3241    -32890.54    274.57597   0.77459664   -23068.216    9355.6477    592.98996   -362.48694   -28.211927    695.57874    30.601895    50.475613    18007.787 
 4238000      7307200    9910.2697   -32891.608    277.03442   0.81440714   -22981.338    9293.8598    593.46401   -364.54501   -28.119226    697.05329    30.521895    50.437743    18063.461 
 4240000      7315200    9783.9831   -32898.184    273.50417   0.82286287   -23114.201     9462.759    593.49372    -366.4149   -28.789882    698.08562    30.441895    50.387238    18119.353 
 4242000      7323200    9917.0903   -32962.385    277.22509   0.89365659   -23045.294    9307.9461    600.10027   -369.08763   -29.441642    705.13319    30.361895    50.508597    18175.245 
 4244000      7331200    9953.0236   -32876.731    278.22958   0.73241528   -22923.707    9284.4726    599.76947   -365.86896   -27.232312    703.08258    30.281895    50.370008    18231.401 
 4246000      7339200    9798.5281   -32844.084    273.91077   0.73166683   -23045.556    9441.9873    599.62108   -367.91526   -29.833149    704.12861    30.201895    50.319895    18287.709 
 4248000      7347200    9935.7312    -32700.66    277.74618   0.85258896   -22764.929    9216.4635    599.45429   -368.20481   -31.128089    704.19399    30.121895    50.241763    18343.976 
 4250000      7355200    9816.8581   -32794.695    274.42317   0.86249694   -22977.837    9372.1142     604.2759   -370.96877   -30.945223    709.73573    30.041895    50.320098    18400.523 
 4252000      7363200    9841.5247    -32653.87    275.11271   0.65581935   -22812.345    9285.0132    603.81719   -370.01338   -30.529736    708.82802    29.961895    50.214164    18457.148 
 4254000      7371200    9815.2666   -32659.111    274.37868   0.88363758   -22843.845    9354.3391    604.81737   -369.84286   -28.865619    709.52168    29.881895    50.153983    18513.825 
 4256000      7379200     9661.369   -32657.219    270.07658   0.83084527    -22995.85    9518.9184    608.19837   -368.52055   -30.218314    711.77651    29.801895    50.138406    18570.682 
 4258000      7387200    9776.1349   -32691.971    273.28478   0.79310725   -22915.836    9412.2402    609.81876   -373.90018   -28.569974    715.88862    29.721895    50.175895    18627.685 
 4260000      7395200    9874.7564    -32493.14    276.04168   0.91348125   -22618.383    9146.0245    611.85178   -373.00063   -28.576808    717.15319    29.641895    50.132026    18684.836 
 4262000      7403200    9723.5563   -32686.475    271.81498   0.81613952   -22962.918    9602.0688    609.64675   -371.29642   -28.243814    714.37239    29.561895    49.972574    18742.067 
 4264000      7411200    10011.175   -32579.543    279.85516    0.7384958   -22568.368    9165.2301    614.48884   -372.96698   -29.347559    719.41795    29.481895    50.036733    18799.508 
 4266000      7419200    9861.6868    -32494.49    275.67632   0.77057982   -22632.803    9299.7583    612.12071   -375.65243   -29.475302     718.8013    29.401895    49.939115     18857.11 
 4268000      7427200    10046.913   -32557.007     280.8542   0.86643696   -22510.094    9183.8035    614.84068   -375.82358   -28.823527    721.18182    29.321895     49.92713    18914.794 
 4270000      7435200    9854.8456   -32501.686    275.48508   0.86746871   -22646.841    9311.9815    616.97096   -378.35052   -30.466767    724.38284    29.241895    49.938587     18972.67 
 4272000      7443200     9943.433   -32443.088    277.96148   0.89327709   -22499.655     9230.971    615.74673   -379.85235   -29.669856    724.09401    29.161895    49.850335    19030.666 
 4274000      7451200    9858.3147   -32660.944    275.58206   0.81532433    -22802.63    9476.8333    621.97045   -380.42164   -26.021126     729.5512    29.081895    49.926255    19088.753 
 4276000      7459200    10037.186   -32536.307    280.58228   0.87462316   -22499.121    9335.1767    616.50971   -379.43814   -27.472145    724.43926    29.001895    49.700199    19147.054 
 4278000      7467200    9902.5217   -32424.164    276.81783   0.80408044   -22521.642    9259.3559    624.27533   -381.45011   -31.919788    732.28598    28.921895    49.844391    19205.468 
 4280000      7475200    9819.6354   -32374.707    274.50081   0.83498314   -22555.071    9397.1375     621.6274   -381.68605   -28.100739    729.99625    28.841895     49.69897    19263.788 
 4282000      7483200    9827.4877   -32263.478    274.72031   0.73205014   -22435.991    9394.7976    619.18196   -380.22413   -29.572676    727.20783    28.761895    49.539301    19322.139 
 4284000      7491200    9732.4794   -32339.263    272.06442    0.7542461   -22606.784    9557.4537    622.14812   -381.24809   -29.878892    730.28154    28.681895    49.547122    19380.647 
 4286000      7499200    9964.7056   -32335.442    278.55614   0.84743028   -22370.736    9324.1759    624.74512   -382.01612   -31.709568    732.97222    28.601895    49.543998    19439.111 
 4288000      7507200    9858.8782   -32317.013    275.59781   0.80493974   -22458.134    9542.8123    621.49797   -380.52546   -30.375494    729.37098    28.521895    49.361106    19497.513 
 4290000      7515200    9851.7505   -32070.583    275.39856   0.91219712   -22218.832     9407.764    620.03388   -378.84492   -29.297988    727.20276    28.441895    49.219157    19555.773 
 4292000      7523200    9815.0679   -32067.132    274.37313   0.82935134   -22252.064    9495.9613    619.25254   -380.71266   -24.714966    727.34219    28.361895     49.14314    19614.034 
 4294000      7531200    9890.6637   -31991.408    276.48635   0.78639488   -22100.745    9418.7735    617.86863   -381.41259   -26.850212    726.60728    28.281895    49.042143    19672.062 
 4296000      7539200    9765.3684    -32058.66    272.98381   0.86349579   -22293.291    9598.5533       620.04   -384.25726   -26.188373    729.92402    28.201895    49.056907    19730.353 
 4298000      7547200    9801.5341   -31924.332     273.9948   0.73595184   -22122.798    9487.6388    621.80574   -381.39899   -27.503503    729.97535    28.121895    48.978373    19788.658 
 4300000      7555200    9768.8201   -31984.071     273.0803   0.89335505   -22215.251    9660.4213    619.55035   -382.87305   -25.439977    728.75346    28.041895    48.863462     19846.98 
 4302000      7563200    9843.6327   -32090.734    275.17163   0.74440408   -22247.101    9710.5248    623.02059   -381.06921   -26.699247    730.80862    27.961895    48.842181    19905.334 
 4304000      7571200    9823.9307   -32087.746    274.62088   0.85912187   -22263.815    9798.7748    619.75854   -384.72246   -29.491582    730.05601    27.881895    48.740678    19963.794 
 4306000      7579200    9698.1702   -31979.848    271.10533   0.75830528   -22281.678    9772.7917    625.23975   -385.41987   -29.626111    735.08566    27.801895    48.804382     20022.32 
 4308000      7587200    9830.1963     -31632.2    274.79603   0.71804088   -21802.004    9502.8032    618.52267   -382.71154   -29.370844    727.94304    27.721895    48.520307     20080.88 
 4310000      7595200    9946.1817   -31788.931    278.03832   0.82057549   -21842.749    9527.0374    623.04011   -382.03355   -29.723479    731.44521    27.641895    48.540369    20139.463 
 4312000      7603200    9895.6317   -31962.593    276.62523   0.74848449   -22066.961    9690.9805    626.95213   -386.49809   -28.058562    737.04615    27.561895    48.620396    20198.253 
 4314000      7611200    9949.0938   -31793.367    278.11972   0.89142753   -21844.273    9631.8728    622.71737   -383.63175   -28.842723    731.97142    27.481895    48.395404    20256.879 
 4316000      7619200    9819.6921   -31922.024    274.50239   0.88368226   -22102.332    9864.1469    624.84189   -387.84113   -27.934243    735.95411    27.401895    48.429195    20315.831 
 4318000      7627200    9883.8995   -31834.747    276.29726   0.67513516   -21950.847    9808.1404    624.84098   -384.50978   -32.021508    734.37007    27.321895    48.303937    20374.887 
 4320000      7635200    9932.3569   -31771.937    277.65185   0.71334595   -21839.581    9607.4708    630.55162   -388.95488   -29.522707    741.45319    27.241895    48.426312    20433.978 
 4322000      7643200    9753.7691   -31814.326    272.65956   0.90389559   -22060.557    9821.7492    632.62039   -391.16672   -30.780442     744.4242    27.161895    48.431198    20493.371 
 4324000      7651200    9945.0238   -31681.516    278.00595   0.88156543   -21736.492    9613.8704    630.10932   -390.25495   -29.288531    741.75097    27.081895     48.27482    20552.676 
 4326000      7659200    9818.1402    -31652.39    274.45901    0.8557051    -21834.25    9763.9593    630.18707   -390.85586   -30.032193    742.16304    27.001895    48.206593    20612.162 
 4328000      7667200    9820.6862   -31812.487    274.53018   0.78763537     -21991.8     9917.072    633.61445   -390.75923   -30.763725    745.05466    26.921895    48.209211    20671.797 
 4330000      7675200    9845.0635   -31822.354    275.21163   0.77724054   -21977.291    9820.6485    640.05749   -392.98591   -31.620058    751.73888    26.841895    48.320188    20731.548 
 4332000      7683200     9836.893   -31686.775    274.98323      0.69356   -21849.882    9780.2885    637.55173    -394.7151   -31.257928    750.49935    26.761895    48.204773    20791.477 
 4334000      7691200    9808.6812   -31716.412    274.19459   0.93402831   -21907.731    9853.3621    640.21746   -394.46081   -30.354273    752.59492    26.681895    48.184647    20851.449 
 4336000      7699200    9791.5217   -31569.393    273.71491   0.79856322   -21777.872    9595.6722    648.74111   -397.23727   -32.825992    761.40661    26.601895    48.356409    20911.592 
 4338000      7707200    9968.2484   -31585.811    278.65517    0.8616798   -21617.563    9567.9023    643.40957   -399.62516   -29.481443    757.98766    26.521895    48.178725    20971.953 
 4340000      7715200    9738.6134   -31451.543    272.23589   0.79084339   -21712.929    9731.5559    644.04152   -397.73133   -31.479291     757.6085    26.441895    48.087892    21032.419 
 4342000      7723200    9897.6396   -31666.257    276.68136   0.93279759   -21768.617     9889.277    643.55701   -394.54147   -31.003562    755.50633    26.361895     47.94783    21092.966 
 4344000      7731200    9808.1692   -31516.819    274.18028    0.7959799    -21708.65    9808.9327     645.6047   -398.70275   -30.616421    759.41206    26.281895    47.979422    21153.601 
 4346000      7739200    9714.2685   -31573.919    271.55535   0.87559934    -21859.65    9886.7383    650.62696   -402.43067   -29.687554    765.60253    26.201895    48.076293    21214.392 
 4348000      7747200    9792.6224    -31623.07    273.74568   0.87397249   -21830.448    9857.3836    653.55157    -402.7351   -28.345422    768.19833    26.121895    48.070458    21275.221 
 4350000      7755200    9816.3432   -31385.106    274.40878   0.69409182   -21568.763    9744.1496    649.68939    -401.8181   -29.902064    764.49214    26.041895    47.884567    21336.424 
 4352000      7763200    9767.3653   -31603.905    273.03963   0.77651419   -21836.539    10004.806    652.03184   -403.54145   -28.617094    767.33966    25.961895    47.885925    21397.513 
 4354000      7771200    9708.2087    -31276.49    271.38595    0.9536524   -21568.281    9859.2857    650.71469   -400.65741   -27.411988    764.66161    25.881895    47.729409    21458.693 
 4356000      7779200    9944.1961   -31332.527    277.98281   0.88179945   -21388.331    9642.4104      652.603   -405.76342     -29.4915     769.0282    25.801895    47.774169    21520.074 
 4358000      7787200    9828.1847   -31402.787     274.7398   0.75203371   -21574.602    9866.5124    655.07775   -403.76871     -30.6774      770.128    25.721895    47.725592    21581.532 
 4360000      7795200    9914.3221   -31185.426     277.1477   0.64350337   -21271.104    9610.1784    654.54699   -406.41549   -29.593837    771.02601    25.641895    47.671249    21643.124 
 4362000      7803200    9768.2774   -31173.593    273.06513   0.84661385   -21405.316     9868.316    653.24277   -402.80571   -27.621421    767.94629    25.561895    47.503257    21704.918 
 4364000      7811200    10002.214   -31243.539    279.60465   0.81021227   -21241.325    9656.2233    656.82412   -406.63362   -29.199402    773.05978    25.481895    47.569357     21766.58 
 4366000      7819200    9874.4456   -31054.046    276.03299   0.84156888   -21179.601    9718.9376    654.60014   -404.66079   -30.059253    770.16574    25.401895     47.40667    21828.248 
 4368000      7827200    9961.5126   -31252.837    278.46688   0.91558671   -21291.324    9893.7505    654.79356   -403.89472   -29.984431    769.92508    25.321895    47.319794    21890.066 
 4370000      7835200    9776.3191   -31123.621    273.28993   0.79209559   -21347.302    9941.3135    656.37554     -407.676   -29.664943    773.24549    25.241895    47.334663    21952.015 
 4372000      7843200    9849.9522   -31066.703    275.34829   0.89707898   -21216.751    9862.6617    657.12222   -407.44775   -29.021818    773.73481    25.161895    47.268643    22013.977 
 4374000      7851200    9874.7942   -31086.904    276.04273   0.86504276    -21212.11    9831.2797    660.08872   -410.17428   -30.040986    777.72908    25.081895    47.302765    22075.946 
 4376000      7859200    9852.5835   -30920.349    275.42185   0.82605813   -21067.765    9803.0487    658.68924   -407.94631   -29.125827    775.33219    25.001895    47.154283    22138.175 
 4378000      7867200    9761.0764   -31004.598    272.86383   0.74912633   -21243.521    9903.6563    664.44472    -410.3585   -29.136499    781.49205    24.921895    47.250279    22200.396 
 4380000      7875200    9818.5152   -30922.362    274.46949   0.95361477   -21103.847    9817.5286    664.51319   -410.85733   -29.776504    781.83641    24.841895    47.180118    22262.796 
 4382000      7883200     9729.367   -31093.169    271.97742   0.88524793   -21363.802    10002.371     671.0577   -412.02864    -27.85451    787.94791    24.761895    47.274732    22325.329 
 4384000      7891200    9737.3789   -30988.215    272.20139   0.81475358   -21250.836    10048.615     667.5366   -409.36444    -30.15114    783.64115    24.681895    47.071682    22388.069 
 4386000      7899200    9949.4163   -30923.738    278.12874   0.75937094   -20974.321    9843.1179     665.9674   -411.52619   -29.599315     783.4172    24.601895    46.985283    22450.893 
 4388000      7907200     9939.449   -30850.905    277.85011   0.77523217   -20911.456    9772.1732    668.06538   -414.05151   -30.911359    786.57836    24.521895    46.995602    22513.886 
