LAMMPS (29 Oct 2020)
Reading data file ...
  orthogonal box = (0.0000000 0.0000000 0.0000000) to (1000.0000 1000.0000 1000.0000)
  2 by 2 by 2 MPI processor grid
  reading atoms ...
  12002 atoms
  scanning bonds ...
  600 = max bonds/atom
  reading bonds ...
  12000 bonds
Finding 1-2 1-3 1-4 neighbors ...
  special bond factors lj:    0.0      0.0      0.0     
  special bond factors coul:  0.0      0.0      0.0     
   600 = max # of 1-2 neighbors
   600 = max # of 1-3 neighbors
  1200 = max # of 1-4 neighbors
  1800 = max # of special neighbors
  special bonds CPU = 0.057 seconds
  read_data CPU = 0.090 seconds
Finding 1-2 1-3 1-4 neighbors ...
  special bond factors lj:    0.0      1.0      1.0     
  special bond factors coul:  0.0      0.0      0.0     
   600 = max # of 1-2 neighbors
   600 = max # of 1-3 neighbors
  1200 = max # of 1-4 neighbors
  1800 = max # of special neighbors
  special bonds CPU = 0.054 seconds
1 atoms in group centroid1
1 atoms in group centroid2
Neighbor list info ...
  update every 1 steps, delay 0 steps, check yes
  max neighbors/atom: 2000, page size: 100000
  master list distance cutoff = 43
  ghost atom cutoff = 43
  binsize = 21.5, bins = 47 47 47
  1 neighbor lists, perpetual/occasional/extra = 1 0 0
  (1) pair lj/expand, perpetual
      attributes: half, newton on
      pair build: half/bin/newton
      stencil: half/bin/3d/newton
      bin: standard
Setting up Verlet run ...
  Unit style    : real
  Current step  : 0
  Time step     : 4.0
Per MPI rank memory allocation (min/avg/max) = 195.2 | 196.0 | 197.0 Mbytes
Step Time KinEng PotEng Temp Press TotEng f_1 f_2[1] f_2[2] f_2[3] f_2[4] f_2[5] f_2[6] f_2[7] 
       0            0    9837.4929   -33256.802          275 -0.046709234   -23419.309            0            0            0            0            0    199.95284    199.95288            0 
    2000         8000    9929.3876   -33555.942    277.56885   0.10138476   -23626.554    202.30426    3.4909967 0.0028573494 0.00015123921    3.4909978    199.87284    199.97262 -0.097486875 
    4000        16000      9821.43   -33405.624    274.55097  -0.05007783   -23584.194    160.02837    -2.367251 0.0015834977 0.0023447307   -2.3672527    199.79284    199.72524 -0.049159594 
    6000        24000    9805.1776   -33359.049    274.09665  0.039287412   -23553.872    129.58477    1.8674591 -0.0011116978 -0.001656686    1.8674601    199.71284    199.76623 -0.021641498 
    8000        32000    9866.9765   -33291.723    275.82419 -0.070175601   -23424.746    3.0987709   0.92780508 -0.0007097827 -0.0010395533   0.92780594    199.63284    199.65939  -0.12466415 
   10000        40000    9837.2429   -33300.263    274.99301  0.083602999    -23463.02    38.780894    5.9622086 -0.005450056 -0.010672094    5.9622206    199.55284    199.72323   0.17455549 
   12000        48000    9801.0505   -33549.648    273.98128 -0.054305693   -23748.597    323.11655   -6.3968971 0.0098011937 0.00065954066   -6.3969046    199.47284    199.29011  -0.14828173 
   14000        56000    9911.1776   -33434.475     277.0598 -0.016197321   -23523.298    98.957262    4.9902919 -0.0063439732 -0.0067076454    4.9903005    199.39284    199.53546  -0.13694059 
   16000        64000    9980.8295   -33414.356    279.00687 -0.0047037788   -23433.526    9.1181723   -4.8441572  0.010312685 0.0033324785   -4.8441694    199.31284    199.17447 -0.011189724 
   18000        72000    9765.7171   -33508.899    272.99356 -0.045509148   -23743.182    317.05114    2.4690295 -0.0063402117 -0.006994967    2.4690475    199.23284    199.30342  0.019430779 
   20000        80000    9899.6756   -33432.753    276.73827  0.041015371   -23533.078    105.04876   -1.8149475 0.0047865249 0.0033482429   -1.8149569    199.15284    199.10102  -0.14288389 
   22000        88000    9796.0238   -33448.515    273.84076 -0.028146034   -23652.491    226.45465   -1.4288608 0.0043484456 0.0040853978   -1.4288732    199.07284    199.03205   0.14430384 
   24000        96000    9852.6438   -33523.929    275.42353    0.0384632   -23671.285    245.56562    5.5877044  -0.01514361 -0.0055948741    5.5877277    198.99284    199.15253 -0.053437644 
   26000       104000     9824.488    -33566.34    274.63646  0.036205369   -23741.852     315.2359   -5.9793426  0.016187823  0.011613555   -5.9793758    198.91284    198.74204  0.025005709 
   28000       112000    9769.8589   -33533.241    273.10934 -0.037153555   -23763.382    340.09257    2.5803179 -0.0052464565 -0.0066171129    2.5803317    198.83284     198.9066  -0.10606576 
   30000       120000    9880.9001   -33359.449    276.21342 -0.010343926   -23478.549    57.360719   -0.4177025 0.0012653421 0.00096341212  -0.41770553    198.75284    198.74094 -0.034183566 
   32000       128000    9801.7941    -33540.36    274.00207 -0.097939088   -23738.566    317.25775    5.9472741 -0.016152928 -0.011458658    5.9473071    198.67284     198.8428 -0.049422945 
   34000       136000    9894.2255    -33507.97    276.58592  0.070892173   -23613.745    186.71681     3.664264 -0.009193695 -0.0061266135    3.6642806    198.59284    198.69757  0.071081846 
   36000       144000    9857.2456   -33505.572    275.55217  0.073530598   -23648.327    223.97864   -2.2838992 0.0076933437  0.003012397   -2.2839142    198.51284    198.44762 -0.018212578 
   38000       152000    10030.702   -33524.796    280.40102  0.043296866   -23494.094    68.642874    7.9395411 -0.023496845 -0.020365293     7.939602    198.43284    198.65972  -0.23932285 
   40000       160000    9737.2187   -33636.527    272.19691  0.021899028   -23899.308    472.35052   0.92585023 -0.0038829954 -0.0026417891   0.92586214    198.35284    198.37933   0.14269987 
   42000       168000    9823.8688   -33543.155    274.61915 -0.0044600715   -23719.286    295.38765   -2.0112673  0.005223405 0.0051328605   -2.0112806    198.27284    198.21541  0.075026027 
   44000       176000    9956.3694   -33660.622    278.32311  0.046941944   -23704.252    275.76779    2.6801204 -0.0071021375 -0.0052405591    2.6801349    198.19284    198.26945 0.0048944655 
   46000       184000    9832.4819   -33602.422    274.85992 -0.015380818    -23769.94    346.59086 -0.057219634 9.8281367e-05 0.00016032403 -0.057219943    198.11284    198.11124 -0.024290623 
   48000       192000     9908.433    -33600.59    276.98308  0.082848184   -23692.157    264.90886   -2.1387277 0.0053235991 0.0053021537   -2.1387409    198.03284    197.97177  -0.20330047 
   50000       200000    9904.9387   -33664.071     276.8854  0.020391854   -23759.132    330.79945    2.2784763 -0.0074657187 -0.0063494724    2.2784974    197.95284    198.01798  0.013138763 
   52000       208000    9928.8777   -33699.033     277.5546   0.10091901   -23770.155    344.12863   -1.0832062 0.0027375076 0.0037687251   -1.0832162    197.87284    197.84193 -0.077824403 
   54000       216000    9815.6227   -33671.829    274.38864 0.0084739187   -23856.206     431.1156            0            0            0            0    197.79284    197.79273 -0.061914085 
   56000       224000    9732.4059   -33521.958    272.06237  0.051279261   -23789.552    364.44753    2.8959397 -0.014692736 -0.010798362    2.8959971    197.71284    197.79562  0.047335228 
   58000       232000    9904.7106   -33572.157    276.87902   0.10725578   -23667.446    241.47054    3.5660217 -0.014890801 -0.018852057    3.5661027    197.63284    197.73477  0.051406136 
   60000       240000    9901.2196   -33601.141    276.78143  0.087947621   -23699.921    274.10658   -5.7520915  0.021726966  0.031071194   -5.7522164    197.55284    197.38853   -0.0304497 
   62000       248000    9826.8052   -33560.478    274.70123  -0.13114853   -23733.672    312.45419    0.2834352 -0.0014632651 -0.0014632593   0.28344275    197.47284    197.48098   -0.2537197 
   64000       256000     9855.038   -33837.793    275.49046   0.15181863   -23982.755    554.41605    1.5706388 -0.005567381 -0.0065751087    1.5706624    197.39284    197.43775  0.051467679 
   66000       264000    9775.0473   -33566.636    273.25438  -0.19527847   -23791.589    367.21851   -3.0115956 0.0097066083  0.014475906    -3.011646    197.31284    197.22683   0.18668447 
   68000       272000    9809.0544   -33630.937    274.20502 -0.0040766922   -23821.883    397.36666   -2.8592385  0.013008228  0.014622461   -2.8593055    197.23284    197.15118   -0.1021176 
   70000       280000    9930.7884   -33678.154    277.60801  0.083032662   -23747.365    318.81606    11.487228 -0.044130903 -0.070637555     11.48753    197.15284    197.48109  0.041322282 
   72000       288000    9777.1803   -33665.881      273.314 -0.037210662   -23888.701      463.241   -4.1269929  0.021304869  0.023933485   -4.1271173    197.07284    196.95496 0.0068911669 
   74000       296000    9791.2122   -33695.276    273.70626 -0.037661839   -23904.064    478.27185   -1.3499478 0.0055560885 0.0083500123   -1.3499851    196.99284    196.95431  -0.19074272 
   76000       304000    9858.7939   -33497.368    275.59545 -0.056818081   -23638.574    212.13683   0.43100569 -0.0025118209 -0.0024776086   0.43102014    196.91284    196.92519  -0.13181715 
   78000       312000    10071.451   -33556.361    281.54013 -0.016824101   -23484.911    60.785613   0.56999716 -0.0033604537 -0.0033474919    0.5700169    196.83284    196.84916  0.053960035 
   80000       320000    9868.0517   -33630.324    275.85425  0.035024669   -23762.273    335.40487   0.16149727 -0.00096153967 -0.00089758841   0.16150263    196.75284    196.75749 -0.038165836 
   82000       328000    9832.7418   -33604.971    274.86719  -0.06819022    -23772.23    346.04625   0.66345505 -0.0035101068 -0.0030951548   0.66347155    196.67284    196.69183 -0.034322013 
   84000       336000    9732.2919    -33680.45    272.05918 -0.072182338   -23948.158    524.02286  -0.28429607 0.0016986356 0.0012736802    -0.284304    196.59284    196.58476    0.1130012 
   86000       344000    9809.9697    -33685.66    274.23061  -0.03496745    -23875.69    451.20559    1.8183565 -0.010518029 -0.010226202    1.8184156    196.51284    196.56483 -0.062547518 
   88000       352000    9887.5677   -33794.408     276.3998  0.064963179   -23906.841    479.47242   -2.9755381  0.017845196  0.017810083    -2.975645    196.43284    196.34786  -0.11114404 
   90000       360000    9833.8246   -33861.779    274.89745  0.032893604   -24027.954    597.80063    3.8588797 -0.026866202 -0.020806023    3.8590293    196.35284    196.46314 -0.010192343 
   92000       368000    10001.706   -33710.205    279.59046  0.026328922   -23708.499    281.43147   -3.6132045  0.030686906  0.027965101    -3.613443    196.27284    196.16964   0.11720371 
   94000       376000    9792.4182   -33699.535    273.73997 -0.001047522   -23907.117    480.74424   -2.4623913  0.015561717  0.013817177   -2.4624792    196.19284    196.12252  -0.21617757 
   96000       384000    9917.2754   -33677.585    277.23026 -0.077604202    -23760.31    333.67185    3.1748756  -0.01849215 -0.020153537    3.1749935    196.11284    196.20359 -0.055935064 
   98000       392000    9891.5567   -33741.576    276.51131 0.0032836976   -23850.019    421.32225    1.4293576 -0.010645743 -0.0096674377    1.4294299    196.03284    196.07372   0.27054095 
  100000       400000    9877.7908   -33701.287     276.1265  0.049753688   -23823.496    397.31128   -3.3172916  0.018454846  0.020903512   -3.3174088    195.95284    195.85809  -0.33771996 
  102000       408000    9921.3298   -33615.067     277.3436 -0.0074555303   -23693.737    266.15655    8.1177427 -0.052633137 -0.058879181    8.1181269    195.87284    196.10482  -0.11116304 
  104000       416000    9787.0929   -33794.525     273.5911  0.032645472   -24007.432    577.11464    2.6804781 -0.021175388 -0.019216072    2.6806306    195.79284    195.86947   0.20331122 
  106000       424000    9645.9571   -33755.858    269.64576  0.017847898   -24109.901    681.27004    2.0876065 -0.015339982 -0.017730305    2.0877381    195.71284    195.77253 -0.075958023 
  108000       432000    9905.9651   -33788.388    276.91409  0.083587145   -23882.423    450.72564     -3.50588  0.027663282  0.024873834   -3.5060774    195.63284     195.5327  -0.30395634 
  110000       440000    9861.9693   -33679.439    275.68422 -0.038022111    -23817.47    390.34681     2.270004 -0.019010566 -0.019061807    2.2701636    195.55284    195.61774  -0.19745233 
  112000       448000    9908.7208   -33859.785    276.99113  0.025395177   -23951.064    523.23312    1.8685171 -0.018728441 -0.014274682    1.8686655    195.47284    195.52627   0.17141666 
  114000       456000     9694.895   -33831.253    271.01378 -0.077391197   -24136.358     707.4075    -2.324905  0.022910479  0.022741314   -2.3251291    195.39284    195.32645   0.12078883 
  116000       464000    10022.436   -33839.169    280.16994  0.095418163   -23816.733    384.93634   -4.3873611  0.044397162  0.044224855   -4.3878086    195.31284    195.18751  -0.25430563 
  118000       472000    9723.9791    -33729.26     271.8268  0.063942814   -24005.281    574.80314    7.1906732 -0.074316297 -0.067756086    7.1913764    195.23284    195.43835  0.049038615 
  120000       480000    9853.8035   -33677.663    275.45595 -1.6791606e-05   -23823.859    398.30449   -5.1492461  0.057024233  0.045940794   -5.1497668    195.15284    195.00574   0.27558553 
  122000       488000    9847.6258   -33755.659    275.28326  -0.10918278   -23908.033     478.6251   -5.9309804  0.060252665  0.062153862   -5.9316121    195.07284     194.9034  -0.19813632 
  124000       496000    9956.5033   -33473.727    278.32685   0.19206394   -23517.224    91.225067   -1.1006883 0.0097293301  0.010711549   -1.1007835    194.99284    194.96143  -0.14976424 
  126000       504000    9866.4792   -33904.349    275.81029 -0.0093934608   -24037.869    609.75499   -1.2456745  0.011542755  0.011357848   -1.2457798    194.91284    194.87728   0.11018205 
  128000       512000    9840.3337   -33538.336    275.07941 -0.012251213   -23698.002    274.50276    -3.254514  0.034872705  0.027800186   -3.2548196    194.83284    194.73988 -0.087995357 
  130000       520000     9861.021   -34050.391    275.65771 -0.015210886    -24189.37    757.86916    3.9493724 -0.041263899 -0.042477865    3.9498164    194.75284    194.86573  -0.14447785 
  132000       528000    9717.3774   -33683.082    271.64226 -0.079084205   -23965.704    539.50525    1.7388645 -0.018118534 -0.015815575    1.7390309    194.67284    194.72256   0.22274229 
  134000       536000      9833.16   -33709.756    274.87888  0.010961912   -23876.596    448.45689   -6.5644103  0.072291286  0.060596885    -6.565088    194.59284     194.4053 -0.050264204 
  136000       544000    9849.4456   -33819.835    275.33413 0.00020318394   -23970.389    541.92281  -0.29405526 0.0031037305 0.0028181922  -0.29408515    194.51284    194.50448  -0.47486617 
  138000       552000    9879.4654   -33748.234    276.17331  0.020941838   -23868.768    438.73649    11.470856  -0.12632703  -0.11994593    11.472179    194.43284    194.76065   0.20064596 
  140000       560000    9874.3549   -33928.428    276.03045 -0.069207677   -24054.073    626.50428   -11.383946   0.13475387  0.092776022   -11.385122    194.35284    194.02759   0.11014471 
  142000       568000    9783.6287   -33596.749    273.49426 -0.021983628   -23813.121    388.15759   -3.9978825  0.049533932  0.032202895    -3.998319    194.27284    194.15864  -0.24439348 
  144000       576000    9846.0818   -33756.322     275.2401  0.043909503    -23910.24    480.27485    9.4864351  -0.10905512 -0.083233216     9.487427    194.19284    194.46395  0.010447748 
  146000       584000    9864.6669   -33853.614    275.75963   0.11678316   -23988.947    559.57085   -8.3171884   0.10280902  0.074284619   -8.3181555    194.11284    193.87522   0.23781662 
  148000       592000    9822.3467   -33820.397     274.5766 -0.0034448856    -23998.05    571.39373   -3.0104632  0.032960576  0.028199937   -3.0107757    194.03284    193.94686  -0.16588272 
  150000       600000    9870.1885   -33689.097    275.91398 -7.4203767e-05   -23818.909    392.44313     4.056103 -0.043219623 -0.036294991    4.0564957    193.95284    194.06878  -0.17973793 
  152000       608000    9880.0048   -33823.999    276.18839 0.0018944407   -23943.995    514.78334     2.663037  -0.03604864 -0.024405755    2.6633928    193.87284    193.94897    0.1583863 
  154000       616000    9839.1856   -33778.695    275.04732 -0.010587935    -23939.51     510.8095   -3.6946248  0.043699686  0.033954469   -3.6950392    193.79284    193.68731  0.087532061 
  156000       624000    9816.4109   -33540.938    274.41067  0.015149852   -23724.527     301.8409   -1.8389116  0.023116752  0.017791697    -1.839143    193.71284    193.66033  -0.11336807 
  158000       632000    9847.1455   -33729.723    275.26983 -0.0082938373   -23882.578    454.99402    4.0870045 -0.051212807 -0.036895009    4.0874919    193.63284    193.74966  -0.24316807 
  160000       640000    9823.3031   -33839.602    274.60334   0.06325315   -24016.299    587.15453   0.19228449 -0.0022519988 -0.0021538263   0.19230974    193.55284    193.55837   0.12007379 
  162000       648000    9879.2776    -33726.86    276.16806  0.024479769   -23847.583    420.36425   -7.8562614   0.10548961  0.085842066   -7.8574385    193.47284    193.24838 -0.015606513 
  164000       656000    9937.6708   -33770.891     277.8004 -0.067586268    -23833.22    405.31896    5.6054616 -0.073181704 -0.059495756     5.606255    193.39284    193.55306  -0.18108489 
  166000       664000    9772.6907   -33802.729     273.1885  0.085251344   -24030.039     600.9897   -6.5046086  0.092652244  0.079370674   -6.5057526    193.31284      193.127  0.048786804 
  168000       672000    9856.1838   -33850.828    275.52249 -0.022372892   -23994.644    565.50441    4.6732742 -0.063665844 -0.057406763    4.6740604    193.23284    193.36642   0.17434159 
  170000       680000    9782.9649   -33782.158    273.47571 -0.038018905   -23999.193     572.3646   -5.1040718  0.072192552  0.070777737    -5.105073    193.15284    193.00702 -0.087569424 
  172000       688000    9674.7298   -33763.349    270.45008  0.024317666   -24088.619    662.34447    3.7590846 -0.056621925 -0.044790398    3.7597778    193.07284     193.1803  -0.27310181 
  174000       696000    9717.2465   -33750.671     271.6386 -0.036338009   -24033.424    604.32047    2.1643344 -0.033415039 -0.024858132    2.1647351    192.99284    193.05473   0.10643977 
  176000       704000    9905.9437   -33758.345    276.91349 -0.092025543   -23852.401    423.07817   -1.1122544  0.017401685  0.012606162    -1.112462    192.91284    192.88109 -0.017053184 
  178000       712000    9897.8253   -33779.361    276.68655   0.12017565   -23881.536    452.63795   -2.2212917   0.03085995  0.026694339   -2.2216665    192.83284     192.7694  0.025798086 
  180000       720000     9599.421   -33795.029    268.34487 -0.027863388   -24195.608    768.12562   -0.7973025  0.010983471 0.0083767779  -0.79742215    192.75284    192.73009 -0.023191983 
  182000       728000    9772.8184   -33702.088    273.19207  -0.10285215   -23929.269    503.85352   0.07168502 -0.00094242125 -0.00076595353  0.071695307    192.67284    192.67493 -0.0043230737 
  184000       736000    9909.4331   -33865.838    277.01104   0.12255545   -23956.405    526.13331  -0.20867431 0.0026715823 0.0026114414  -0.20870775    192.59284    192.58691  -0.11386104 
  186000       744000    9771.5582   -33767.957    273.15684 -0.058557185   -23996.398    569.47318  -0.76066566  0.010631805 0.0092745156  -0.76079649    192.51284    192.49114   0.10530033 
  188000       752000    9639.6457   -33810.862    269.46932  0.013323722   -24171.217    743.94403    1.0696376 -0.015968086 -0.012255514    1.0698269    192.43284    192.46344  0.048209107 
  190000       760000    9633.9055   -33841.097    269.30886 -0.022572445   -24207.191    777.43946    -0.416168 0.0065868243 0.0048659206  -0.41624857    192.35284    192.34099  -0.10577383 
  192000       768000    9829.0408   -33690.998    274.76373 -0.043935703   -23861.957    435.66028  -0.29898194 0.0045251957 0.0036706217  -0.29903871    192.27284    192.26433   -0.2427795 
  194000       776000    9887.3607   -33719.128    276.39402 -0.057425984   -23831.768    405.10971    3.7553405 -0.058838525 -0.043112099    3.7560489    192.19284    192.30019 -0.029013372 
  196000       784000    9931.4331   -33671.277    277.62603 -0.035093361   -23739.844    313.99639   -1.8730767  0.028841673  0.022803029   -1.8734375    192.11284    192.05935   0.21810406 
  198000       792000    9848.8885   -33871.099    275.31856   0.07409208    -24022.21    592.55888  -0.53688255   0.00906554 0.0067474507  -0.53700148    192.03284    192.01754  -0.08626869 
  200000       800000    9910.8824   -33683.872    277.05155  0.037105466   -23772.989      346.117    4.2649989 -0.061026286 -0.051224756     4.265743    191.95284    192.07476  -0.11062377 
  202000       808000    9900.7407    -33658.31    276.76805 -0.0048292295   -23757.569    330.63747     2.324061 -0.035827969 -0.028021715     2.324506    191.87284    191.93929  0.008437777 
  204000       816000    9999.9965   -33746.294    279.54267   0.10544054   -23746.297    314.59199    3.0143221 -0.049633696 -0.035969022    3.0149453    191.79284    191.87902   0.15685262 
  206000       824000    9791.1831    -33788.59    273.70544   0.03413411   -23997.407    567.45601   -8.7265127   0.13682362   0.11275078   -8.7283135    191.71284     191.4635 -0.010153696 
  208000       832000     9820.651   -33672.301     274.5292  -0.11804989    -23851.65    429.06264   -1.3062834  0.021244043  0.016986403   -1.3065666    191.63284    191.59555  -0.17571187 
  210000       840000    9727.9733   -33922.742    271.93846  0.022038686   -24194.769    765.71596     4.751982 -0.079690541 -0.064917845    4.7530935    191.55284    191.68868  0.049588345 
  212000       848000    9831.5868   -33885.767     274.8349   0.13775842    -24054.18    623.90953   -2.9076608   0.04969443  0.034796628   -2.9082936    191.47284    191.38978 -0.023412845 
  214000       856000    9862.0088   -33743.116    275.68532  0.077908227   -23881.107    454.04848   -0.1124002 0.0018902812 0.0013588713  -0.11242431    191.39284    191.38967  -0.12915936 
  216000       864000    9875.1551   -33930.333    276.05282  0.066139681   -24055.178    625.79108   -5.5693115  0.097682859  0.080083801   -5.5707437    191.31284    191.15371  0.047195018 
  218000       872000    9955.6589   -33837.659    278.30325 -0.041992215       -23882    455.70616    5.2527448 -0.090798802 -0.075237741    5.2540682    191.23284    191.38299  -0.14806115 
  220000       880000    9784.0248   -33730.781    273.50534 -0.033625547   -23946.756    522.11894   -7.4316194   0.13311998   0.10147923   -7.4335043    191.15284    190.94049 -0.077576222 
  222000       888000    9938.8458   -33816.876    277.83325 -0.027457693    -23878.03    450.49838    3.6015579 -0.064360515 -0.049327187    3.6024707    191.07284    191.17581    0.1556052 
  224000       896000    9864.2876     -33776.7    275.74903  0.080279575   -23912.412    483.03151   -4.0649678  0.072373581  0.058890195   -4.0660386    190.99284    190.87671  0.015353815 
  226000       904000    9840.0896   -33820.334    275.07259 -0.0088220752   -23980.244    549.27607   -4.5871246  0.076991044   0.06444106   -4.5882232    190.91284    190.78179 -0.0037500935 
  228000       912000    9771.6517   -33757.266    273.15946 -0.077805708   -23985.614    558.87644    4.8846833 -0.084089861 -0.072833617      4.88595    190.83284    190.97248 -0.040968577 
  230000       920000    9896.4834   -33876.561    276.64904  0.057122647   -23980.078    551.28454  -0.97944189  0.016206353  0.014557684  -0.97968413    190.75284    190.72489  -0.13946072 
  232000       928000    9808.3723   -33967.919    274.18596 -0.0088219407   -24159.547    732.15429 -0.077595854 0.0014512826 0.0011145978 -0.077617428    190.67284    190.67066   0.20170593 
  234000       936000    9786.0431   -33872.294    273.56176  0.088007131   -24086.251    656.13664  -0.82671352  0.015165543  0.013285598  -0.82695934    190.59284    190.56925  -0.20369488 
  236000       944000    9874.9383   -33845.938    276.04676 -0.065911979       -23971    544.15725   -1.1824287  0.020527956  0.017129075   -1.1827309    190.51284    190.47909   -0.1086047 
  238000       952000    9714.3188   -33817.906    271.55676 -0.060476777   -24103.587    674.49072    1.1261769 -0.020863454 -0.018210464    1.1265173    190.43284    190.46506  0.058899147 
  240000       960000    9823.2351   -33678.087    274.60143  0.015131725   -23854.852    429.13759   -1.2177783   0.02158852  0.018230456   -1.2181061    190.35284    190.31808    0.1710948 
  242000       968000    9884.3955   -33751.201    276.31113 0.0070357357   -23866.805    438.77194   -3.5138165  0.064566809   0.05558533   -3.5148493    190.27284    190.17245  -0.21054268 
  244000       976000    9769.4994   -33944.309    273.09929  -0.13739458    -24174.81    748.01583    2.9865513 -0.055591722 -0.048024905    2.9874547    190.19284    190.27823  0.015999302 
  246000       984000    9761.7435   -33688.809    272.88248 0.0044296143   -23927.065    500.18991  -0.85820839  0.016480169  0.014552774  -0.85848997    190.11284    190.08835  0.098300305 
  248000       992000    9938.6342   -33758.559    277.82733 -0.016063026   -23819.924    391.09344   -2.0031646  0.036130246  0.030339881   -2.0037202    190.03284    189.97563   0.14243864 
  250000      1000000    9821.7041   -33895.502    274.55864  0.061723253   -24073.798    644.64331  -0.64158268  0.012615269  0.010123875  -0.64178654    189.95284    189.93454  -0.14502313 
  252000      1008000    9833.7293   -33920.539    274.89479  0.088106764    -24086.81    655.50162    8.1614489  -0.15830205  -0.13343911    8.1640746    189.87284    190.10614  -0.12514344 
  254000      1016000    9942.2791   -33792.553    277.92922  0.030417781   -23850.274    422.13276   -1.2268259  0.023925876  0.021442735   -1.2272465    189.79284    189.75781   0.10663101 
  256000      1024000     9792.171   -33644.569    273.73306 -0.038138759   -23852.398    427.17342   0.43435095 -0.0081599095 -0.0070942046   0.43448551    189.71284    189.72529  -0.13777113 
  258000      1032000    9851.1429   -33703.583    275.38158  0.052182523    -23852.44    424.64406    5.6858511 -0.098609473 -0.097205933    5.6875368    189.63284    189.79538 -0.044513587 
  260000      1040000    9867.5317   -33802.107    275.83971 -0.036744604   -23934.575    507.69075   -4.1646859  0.076801439  0.071249055   -4.1660033    189.55284    189.43385  -0.17340574 
  262000      1048000    9851.7805   -33669.205     275.3994 -0.0097845883   -23817.424    390.68958    2.5724081 -0.052011306 -0.040506488    2.5732527    189.47284     189.5464   0.06594279 
  264000      1056000     9790.834   -33785.825    273.69569  0.040770418   -23994.991    566.32805   -9.0438734   0.17526882   0.15751166   -9.0469428    189.39284    189.13439  -0.12292418 
  266000      1064000    9850.1909   -33873.073    275.35496   0.07499794   -24022.882    593.50999    2.1975195 -0.045166287 -0.036312076    2.1982835    189.31284    189.37569  -0.13997504 
  268000      1072000    9966.2891   -33865.357    278.60041 -0.068988568   -23899.067    470.23565    3.2174869 -0.066212904 -0.051954968    3.2185875    189.23284    189.32484   0.06338424 
  270000      1080000    9794.5828   -33765.642    273.80048  0.017609054   -23971.059    544.33515    1.1398116 -0.022300534 -0.019062276    1.1401891    189.15284    189.18545   0.14490612 
  272000      1088000    9846.7321   -33742.534    275.25828 -0.082505577   -23895.801    468.63155   -5.9364337   0.11920227  0.097729658   -5.9384346    189.07284    188.90321  -0.11787976 
  274000      1096000    9722.9574   -33928.346    271.79824  0.039835546   -24205.388    774.54485    1.7535545 -0.035130215 -0.032180723    1.7542016    188.99284      189.043  -0.11997495 
  276000      1104000     9824.083   -33722.761    274.62514 -0.016697382   -23898.678      469.517   -2.1523046  0.043292473  0.037136579   -2.1530602    188.91284    188.85136   0.11975483 
  278000      1112000    9732.4188   -33730.603    272.06273 -0.019011941   -23998.185    570.33857   -2.1548071  0.043084955  0.035810983   -2.1555353    188.83284    188.77129  0.016890446 
  280000      1120000    9892.1621   -33970.391    276.52824  0.012459021   -24078.229    646.37417   -2.3360379   0.04797477  0.037868775   -2.3368374    188.75284    188.68611  -0.19579952 
  282000      1128000    9888.1161   -33712.811    276.41514 -0.040989423   -23824.695    396.95424   0.20512295 -0.0043043937 -0.0034394539   0.20519694    188.67284    188.67874 -0.067820912 
  284000      1136000    9733.4771   -33899.641    272.09231 -0.093811896   -24166.164    736.54319    5.0457854  -0.10654014 -0.087675344    5.0476715    188.59284     188.7371  0.014122644 
  286000      1144000     9832.729   -33927.173    274.86683  0.075572975   -24094.444    663.12526   -4.9694789   0.10336656  0.087766344   -4.9713287    188.51284    188.37084  0.065168856 
  288000      1152000    9832.1075   -33955.662    274.84946 0.0098507472   -24123.554    693.03241    2.8823252 -0.062049077 -0.052086648    2.8834635    188.43284    188.51526   -0.2866881 
  290000      1160000     9770.295   -33865.811    273.12153  0.041856462   -24095.516    665.90461    6.5635279  -0.13839349  -0.11779399    6.5660434    188.35284    188.54048  0.050406415 
  292000      1168000    9771.7182   -34047.398    273.16132 -0.085625473   -24275.679    844.08372   -7.8083082   0.17077202   0.13966846   -7.8114241    188.27284    188.04969   0.25729704 
  294000      1176000    9890.6737   -33890.273    276.48663  0.095872949   -23999.599    567.30612    6.5141999  -0.13881752  -0.11628244    6.5167163    188.19284    188.37907  -0.26709039 
  296000      1184000    9964.1426   -33927.131     278.5404 -0.011037456   -23962.988    533.27321  -0.68467996  0.014573544  0.012815217  -0.68495493    188.11284    188.09331   0.15648575 
  298000      1192000    9985.0945   -33944.572     279.1261  0.017741816   -23959.477    528.64176    6.4451263  -0.13962773   -0.1141929    6.4476499    188.03284     188.2171  -0.16605055 
  300000      1200000    9812.7167   -33998.785     274.3074 -0.018349461   -24186.069     758.5313   -1.6298244  0.036346948  0.030375909   -1.6305126    187.95284    187.90629   -0.1043352 
  302000      1208000     9771.106   -33813.581     273.1442   0.12317886   -24042.475    612.80105    6.1779274  -0.13333227  -0.10985327    6.1803424    187.87284    188.04946 0.0094599928 
  304000      1216000    9868.5197   -33931.925    275.86733 -0.0025463986   -24063.405     634.3898   -2.7271201  0.063478101  0.050171227   -2.7283201    187.79284    187.71493   0.04939352 
  306000      1224000    9870.4953    -33775.77    275.92256 0.0041730471   -23905.275    477.97797 -0.092327899 0.0020655213 0.0017004169 -0.092366654    187.71284    187.71024  -0.20550312 
  308000      1232000    9778.9845   -33913.673    273.36444 -0.011481836   -24134.689    705.84184  -0.47841528  0.011030076 0.0087121693  -0.47862171    187.63284     187.6192 -0.074308808 
  310000      1240000    9900.1648   -33741.559    276.75195 -0.00085134497   -23841.394     413.7568   -1.8876441  0.043859021  0.035577526   -1.8884887    187.55284    187.49892   0.14101354 
  312000      1248000    9888.9653   -33859.861    276.43887   0.15562186   -23970.896    540.12331    1.0473097 -0.023985134 -0.019253684    1.0477612    187.47284    187.50281  -0.14307273 
  314000      1256000     9883.142   -33904.391    276.27609  0.043430404   -24021.249    592.44211    3.4467169 -0.082785444 -0.064621405    3.4483165    187.39284     187.4914  0.055496083 
  316000      1264000    9823.4805   -33982.815    274.60829 -0.033645189   -24159.335    730.65074   -1.8636118  0.044401221  0.037171754   -1.8645112    187.31284    187.25961 -0.0088295027 
  318000      1272000    9795.8833   -33852.963    273.83683 -0.035565655    -24057.08    629.46917   -2.0669297  0.046747621  0.037500468   -2.0677984    187.23284     187.1738  -0.10722674 
  320000      1280000    9780.0322   -33813.233    273.39373 -0.0021622877   -24033.201    605.51885   -2.3060336  0.053339137  0.041749348   -2.3070282    187.15284    187.08696  -0.24194407 
  322000      1288000    9831.9552   -33924.955     274.8452  0.034995305   -24092.999    660.70086    6.0144335   -0.1425314  -0.10821432    6.0170953    187.07284     187.2448 -0.038028796 
  324000      1296000    9826.5723   -33814.559    274.69472  0.082775964   -23987.987    558.17137    2.1131306 -0.046270542 -0.041412142    2.1140428    186.99284    187.05328   0.11127637 
  326000      1304000    9983.9151   -33810.543    279.09313  0.069808523   -23826.628    396.76389   -5.5806249   0.13703455   0.11450721   -5.5834814    186.91284    186.75335  0.012144108 
  328000      1312000     9797.937   -33910.153    273.89424 -0.083071415   -24112.216    680.64964   -3.6886696  0.090426453  0.074065683   -3.6905212    186.83284    186.72743  -0.20747529 
  330000      1320000    9803.4995   -33841.134    274.04974 -0.0077300395   -24037.635    605.59507    1.5150806 -0.036272145 -0.031727631    1.5158468    186.75284    186.79619  -0.11188958 
  332000      1328000    9874.7302   -33996.659    276.04094 -0.035992814   -24121.929    693.21445   -3.8748056   0.09837749  0.074303947   -3.8767664    186.67284    186.56211   0.11737959 
  334000      1336000    9827.5966   -33858.857    274.72336  0.055238163    -24031.26    598.70084    -8.389441   0.19753205     0.175266   -8.3935962    186.59284    186.35306 -0.022577936 
  336000      1344000    9887.0585   -34016.526    276.38557 -0.037755086   -24129.467    700.65881   -1.2898341  0.032609599  0.027141034   -1.2905317    186.51284    186.47601 -0.094602404 
  338000      1352000    9852.2111   -33830.562    275.41144 -0.016530242   -23978.351    547.27798   -0.9457315   0.02295616  0.020002045  -0.94622151    186.43284    186.40584 0.00026741271 
  340000      1360000    9839.8665   -33960.037    275.06635 0.0050692217   -24120.171    690.73447    -1.620362  0.040210479  0.036730018   -1.6212769    186.35284    186.30656  0.088309282 
  342000      1368000    9711.3473   -33935.257    271.47369 -0.050789324    -24223.91    794.61414    6.1488923  -0.15719672  -0.13125467    6.1523016    186.27284    186.44866  -0.22344297 
  344000      1376000    9752.9308   -33894.867    272.63613  0.057050247   -24141.936    711.00186  -0.41899723  0.010831513 0.0089326139  -0.41923238    186.19284     186.1809   0.19298008 
  346000      1384000    9809.1787   -33911.972     274.2085  0.037342059   -24102.793    672.33205   -3.3459005  0.088025806  0.071668977   -3.3478254    186.11284    186.01723  -0.16068274 
  348000      1392000    9819.0634   -33732.598    274.48482 -0.081461792   -23913.535    482.29509    6.1894501  -0.14843736  -0.13491874    6.1926997    186.03284    186.20981 0.0052062203 
  350000      1400000    9767.4607   -33731.776     273.0423 -0.045834842   -23964.315     535.9316   -2.8783821   0.07374751  0.063446981   -2.8800257    185.95284    185.87059  0.084106048 
  352000      1408000    9799.5801   -34007.163    273.94018  0.093716157   -24207.583    775.95725   -4.4814854   0.11420129  0.097510186   -4.4840007    185.87284    185.74476 -0.071216009 
  354000      1416000    9849.9971   -34017.053    275.34955  -0.06233938   -24167.055    736.78758   -1.3094591  0.032238388  0.030830566   -1.3102186    185.79284    185.75544 -0.096715232 
  356000      1424000    9750.6658   -33948.794    272.57281  0.023002279   -24198.129    766.59403   -3.5713281  0.094546592  0.078756847   -3.5734473    185.71284    185.61078  0.020494299 
  358000      1432000    9775.4754    -33935.07    273.26635 -0.091427178   -24159.595    730.07604  -0.33363411 0.0083642892 0.0076457024  -0.33382651    185.63284    185.62334  -0.20322038 
  360000      1440000    9793.5753     -33911.5    273.77232   -0.0123409   -24117.924    689.68059    4.9044844  -0.12878451  -0.12125989    4.9076732    185.55284     185.6931  0.017831274 
  362000      1448000    9740.1326   -33885.246    272.27836 -0.014403441   -24145.113    716.57109   -0.5043718  0.013281743   0.01157421  -0.50467939    185.47284    185.45846   0.16884782 
  364000      1456000     9773.102   -33972.522        273.2 -0.024086783    -24199.42    768.05126    1.7529127 -0.047148874 -0.041682286     1.754042    185.39284    185.44299  0.010425758 
  366000      1464000     9752.112   -33867.162    272.61324  -0.03767198    -24115.05    685.71645   0.57672167 -0.015299978 -0.013620608   0.57708534    185.31284    185.32937  -0.28997471 
  368000      1472000    9885.9272   -33820.555    276.35395 0.0068515822   -23934.628    505.16383    3.5615875 -0.096020366 -0.084396152    3.5638811    185.23284     185.3347 -0.031978974 
  370000      1480000    9804.6713   -33983.478     274.0825  0.022539356   -24178.807     747.7284   -1.6902927  0.046244211  0.039593324   -1.6913887    185.15284    185.10455   0.22829111 
  372000      1488000    9829.9204   -34148.148    274.78832  0.024408309   -24318.227    883.33387   -3.9532942   0.10328933  0.094890475   -3.9557816    185.07284    184.95986 0.0017906676 
  374000      1496000     9846.211    -33931.91    275.24371  -0.01551089   -24085.699    655.76433    3.7562093  -0.10010964 -0.087457564    3.7585607    184.99284    185.10027  -0.17884487 
  376000      1504000    9864.7278     -34144.7    275.76133   0.15931528   -24279.972    846.20627  -0.97090733  0.026127217   0.02309075  -0.97153325    184.91284    184.88512  -0.01537904 
  378000      1512000    9805.7921   -33902.445    274.11383   0.10705641   -24096.653    667.43819    5.8637014  -0.16708118  -0.13877339    5.8677226    184.83284    185.00053    0.2859419 
  380000      1520000    9798.8184   -33987.705    273.91888 -0.036010556   -24188.886    758.30398   -6.9372018   0.19144713   0.16511009   -6.9418069    184.75284    184.55454 -0.084143304 
  382000      1528000    9909.5297   -34036.848    277.01374 -0.0023098841   -24127.318    696.58926    6.6014209   -0.1771929  -0.15867092    6.6057045    184.67284    184.86161  -0.40283115 
  384000      1536000    9902.7228    -33956.88    276.82346  0.030775704   -24054.158    623.79508    4.3633744  -0.12503732  -0.10209294    4.3663593    184.59284    184.71763  0.075962292 
  386000      1544000       9864.1   -33857.661    275.74378 -0.065265717   -23993.561    566.00784    2.0267628 -0.057912671 -0.045999514    2.0281117    184.51284    184.57082   0.22812345 
  388000      1552000    9672.7708   -33881.786    270.39531 -0.010040164   -24209.015    777.11657   -8.9655733   0.26099098   0.19927232   -8.9715846    184.43284    184.17655 -0.099199108 
  390000      1560000    9759.3132   -33969.997    272.81454    0.0537788   -24210.684    779.26767    7.3334847  -0.20577245  -0.17889527    7.3385519    184.35284    184.56255  -0.33945435 
  392000      1568000    9884.2614   -33818.779    276.30738 0.0084897983   -23934.517    504.47534    3.8222247  -0.11211039 -0.090562371    3.8249408    184.27284    184.38216   0.15069998 
  394000      1576000    9922.9383   -33877.942    277.38856  0.022308614   -23955.004    524.02168   -6.5056419   0.19463967   0.15308417    -6.510353    184.19284    184.00687  0.013194262 
  396000      1584000    9771.9574   -33799.676      273.168  0.077449922   -24027.719    597.92057    2.7965654 -0.080462279 -0.066875039    2.7985219    184.11284    184.19284  -0.21470948 
  398000      1592000     9953.714   -33899.901    278.24888  0.082142679   -23946.187    514.76701    5.2289749  -0.15892594   -0.1306293    5.2330202    184.03284    184.18239    0.1652558 
  400000      1600000    9853.2047   -33954.852    275.43921  0.044604263   -24101.648    670.47147   -1.1148357  0.032746064  0.026686406   -1.1156357    183.95284      183.921  0.055880292 
  402000      1608000    9813.2125   -33942.714    274.32126  0.026344309   -24129.502    700.45404    1.0335656 -0.031452544 -0.024831632    1.0343422    183.87284    183.90243     -0.27882 
  404000      1616000    9723.5053   -33951.284    271.81356  0.011491987   -24227.779    795.63558    2.0793245  -0.06180007 -0.049156456    2.0808234    183.79284    183.85233  0.025008981 
  406000      1624000    9766.8342   -33829.209    273.02479  -0.07767045   -24062.375    634.45024   -1.5929056  0.047764138  0.038164281   -1.5940785    183.71284    183.66733  0.050662853 
  408000      1632000    9844.9852   -34073.575    275.20944  0.038471004    -24228.59    796.47013  -0.97760574  0.029057525  0.023658369  -0.97832359    183.63284    183.60493 -0.090552603 
  410000      1640000     9893.115   -33921.742    276.55488 -0.044103788   -24028.627    598.65116    5.8460462  -0.16877478  -0.14433592    5.8502627    183.55284    183.72003 -0.0039904701 
  412000      1648000    9884.9901   -33873.214    276.32775  0.012052111   -23988.223    558.57825   -1.7783811  0.053139789  0.041938321   -1.7796691    183.47284    183.42203   0.19023528 
  414000      1656000    9866.6425   -33794.669    275.81486  0.018458844   -23928.026    500.40438            0            0            0            0    183.39284    183.39221   -0.1250569 
  416000      1664000     9728.721   -33875.264    271.95936  0.029177503   -24146.543    715.84694   -2.0222435  0.061879286  0.049365684   -2.0237922    183.31284    183.25506 -0.041699252 
  418000      1672000    9833.0079   -34063.602    274.87462 0.0080286949   -24230.594     799.3264    7.2713113  -0.21990996   -0.1784762     7.276825    183.23284    183.44079  -0.10793262 
  420000      1680000    9878.2525   -33933.625     276.1394  0.020323419   -24055.373    622.64782   -2.3706647  0.071737029  0.058068536   -2.3724606    183.15284    183.08509  -0.11777825 
  422000      1688000    9796.9432   -33909.376    273.86646 -0.054010652   -24112.433    680.92493    1.5745951 -0.046846217 -0.040175333    1.5758041    183.07284     183.1179  0.072048213 
  424000      1696000    9882.1459   -34132.882    276.24824   0.10851448   -24250.736    817.87653   -4.2385616   0.13125465   0.10663692   -4.2419339    182.99284    182.87168 -0.097687941 
  426000      1704000    9871.8237   -34031.964    275.95969   0.14663124    -24160.14    727.82842    3.8134533  -0.12103878 -0.098570507    3.8166468    182.91284    183.02193  0.013002423 
  428000      1712000    9845.0261   -33972.463    275.21059  0.052276708   -24127.437    695.00898   -4.8376624   0.15084784   0.12351677   -4.8415896    182.83284    182.69455  0.014062245 
  430000      1720000    9813.7428   -33912.246    274.33608 -0.0020232306   -24098.503    667.72722    2.6869217 -0.083384777 -0.075158853    2.6892658    182.75284    182.82971  -0.11243637 
  432000      1728000    9829.0236   -33997.624    274.76325  0.060759298   -24168.601     738.2938    1.8621549 -0.058703637 -0.052357217    1.8638155    182.67284    182.72613  0.091419968 
  434000      1736000    9909.5622   -33936.939    277.01465 -0.055120303   -24027.377    598.32595    -4.010989   0.12795319   0.11047875   -4.0145498    182.59284    182.47818  -0.01180601 
  436000      1744000    9956.0407   -34162.672    278.31392  0.020872948   -24206.631    775.96451  -0.77417259  0.024964562  0.020363163  -0.77484262    182.51284    182.49074 -0.085644403 
  438000      1752000    9763.5089   -34085.571    272.93183  0.041893743   -24322.062    888.79346  -0.38881552  0.012353449  0.010450553  -0.38915207    182.43284    182.42176  0.041743243 
  440000      1760000    9807.9171   -33826.031    274.17323  -0.05291116   -24018.114    589.72525    5.5867212  -0.18416016  -0.15141386    5.5918061    182.35284    182.51264  -0.01705834 
  442000      1768000    9875.6002   -34201.451    276.06526  0.042016008   -24325.851     890.7528    6.4994304  -0.20695893  -0.17553131    6.5050933    182.27284    182.45874  0.010460867 
  444000      1776000    9898.8199   -33719.549    276.71435 -0.052535421   -23820.729    390.28932   -4.0433703    0.1370957   0.11467566   -4.0473187    182.19284    182.07724  -0.15524914 
  446000      1784000    9876.9697   -33963.125    276.10354 -0.045249054   -24086.155    656.47609  -0.34888327  0.011968415  0.009463897  -0.34921675    182.11284     182.1029  -0.06582953 
  448000      1792000    9919.4816   -33836.156    277.29193 -0.071889262   -23916.675    488.63984   -1.7907922  0.056956581  0.050202397   -1.7924009    182.03284    181.98167   0.23048242 
  450000      1800000     9789.559   -33823.445    273.66004  0.045149342   -24033.886    604.72011   -3.1275135   0.10054532  0.092105911   -3.1304846    181.95284    181.86344  -0.13936372 
  452000      1808000    9820.2053   -34014.515    274.51674   0.13991988   -24194.309    760.25536    1.9266122 -0.066192251 -0.053413573    1.9284887    181.87284    181.92798 -0.014520025 
  454000      1816000    9691.0796   -33935.371    270.90712   0.10848179   -24244.292    813.65752    4.2547572  -0.14272643  -0.12850973    4.2590896    181.79284    181.91457 -0.0011115217 
  456000      1824000    9811.7059   -33965.074    274.27914   0.12787303   -24153.368    720.70481  -0.47871856  0.016371218  0.014255233  -0.47921048    181.71284    181.69919  -0.06543817 
  458000      1832000    9863.3493    -34054.79     275.7228 -0.065145718   -24191.441    761.28933   -5.5609075   0.18429584   0.16019819   -5.5662663    181.63284    181.47384  -0.13505692 
  460000      1840000    9786.1098   -34006.989    273.56362   0.01375838    -24220.88    790.19194    6.5201859   -0.2217655  -0.19410657    6.5268431    181.55284    181.73936  0.016969225 
  462000      1848000    9873.2647   -33856.407    275.99998 -0.088368542   -23983.142     556.4323   -4.6464691    0.1632847   0.13910705   -4.6514178    181.47284    181.33998  0.057867468 
  464000      1856000    9792.8597   -33857.908    273.75231  0.064709535   -24065.048    635.10134    -8.242659   0.27796138   0.24858096   -8.2510897    181.39284    181.15713 -0.089540248 
  466000      1864000    9689.3325   -33970.586    270.85828  0.042613796   -24281.253    850.81677    8.6381047  -0.29032511  -0.25988659    8.6468886    181.31284    181.55993 -0.076256601 
  468000      1872000    9766.9158   -33978.601    273.02707 -0.031482569   -24211.685    783.06048  -0.86358643  0.030998851  0.026096601  -0.86453657    181.23284    181.20818  -0.28016093 
  470000      1880000     9798.403   -33905.678    273.90727  0.062945006   -24107.275    675.71245    4.4513823  -0.15511156  -0.13082264    4.4560048    181.15284    181.28019  0.069692215 
  472000      1888000    9714.7866   -33896.251    271.56983 -0.031210166   -24181.464    750.96326    -2.444136  0.080143256  0.071483963   -2.4464941    181.07284    181.00298   0.24505523 
  474000      1896000    9802.3115   -33930.045    274.01653 -0.0048621487   -24127.733    697.60536   -1.0616887   0.03556175  0.030889167   -1.0627332    180.99284    180.96251  -0.07544085 
  476000      1904000    9677.7769   -33790.208    270.53526  0.023302738   -24112.431    680.47823    2.8957237  -0.10100657 -0.086087405    2.8987633    180.91284     180.9957  -0.13327403 
  478000      1912000    9857.6471   -33958.519     275.5634  0.034946061   -24100.872    670.62215   0.80685048 -0.027411712  -0.02490556   0.80770006    180.83284    180.85596 -0.074388017 
  480000      1920000    9782.6186   -33865.439    273.46603  0.055424609    -24082.82    653.46319  -0.78080609   0.02702027  0.022450225  -0.78159597    180.75284    180.73055 -0.00092296985 
  482000      1928000    9729.3893   -33867.188    271.97804  0.036770848   -24137.799    708.74128   -1.0028732  0.036288309  0.029798638   -1.0039719    180.67284    180.64419   0.22864221 
  484000      1936000    9902.8004    -33949.21    276.82562  0.056589296    -24046.41     616.1573   -1.7199419  0.058936377   0.05091598   -1.7217044    180.59284    180.54369  -0.18670514 
  486000      1944000    9801.0271   -34061.334    273.98063  0.039798473   -24260.307    827.98128   -1.0101588  0.035911006  0.030746298   -1.0112644    180.51284    180.48398  -0.23953629 
  488000      1952000    9716.3148   -34078.745    271.61255  0.017976468    -24362.43    932.42669    6.0946835  -0.22158831   -0.1848828    6.1015121    180.43284    180.60721   0.23223978 
  490000      1960000    9829.1557   -33970.505    274.76694  0.079856204   -24141.349    709.31545   -7.5689833   0.26662409   0.23310064   -7.5772642    180.35284    180.13638  0.036288102 
  492000      1968000    9768.4059    -34000.54    273.06872  0.095567088   -24232.134    800.41389   -3.3899807    0.1240893   0.10826083   -3.3939782    180.27284    180.17591    -0.174487 
  494000      1976000    9852.4718   -34007.778    275.41873 -0.007390008   -24155.306    724.44345   0.72176457 -0.025202283 -0.022507537   0.72255508    180.19284    180.21352 -0.083069247 
  496000      1984000     9959.516   -34014.825    278.41107  -0.12471931   -24055.309    627.30622   0.59252191 -0.021171609 -0.019638078   0.59322517    180.11284    180.12983  0.078887396 
  498000      1992000    9745.1315   -34036.276    272.41811 0.0036946695   -24291.145    862.22813   -2.8690818   0.10335107  0.092036781   -2.8724175    180.03284    179.95081   0.09262803 
  500000      2000000    9918.0216   -34002.291    277.25112   0.10929156   -24084.269    653.22155   -5.0924745   0.19003767   0.15993217   -5.0985281    179.95284    179.80721  -0.20164873 
  502000      2008000    10032.191   -34168.982    280.44263 -0.029922599   -24136.792    705.75441    3.6332566  -0.14057567  -0.11347544    3.6377454    179.87284    179.97681  0.088101701 
  504000      2016000    9885.5036   -33904.906    276.34211 -0.011194959   -24019.403    589.94066    1.5836053 -0.060238177 -0.048223331    1.5854841    179.79284    179.83818  0.032987276 
  506000      2024000     9799.608   -33897.798    273.94095  0.044775812    -24098.19    667.72749   0.46572076 -0.017608184 -0.014067101   0.46626576    179.71284     179.7262 -0.0073689039 
  508000      2032000    9905.6511   -34119.467    276.90531 -0.0055158483   -24213.816    780.03706   -2.9830133   0.11085993  0.094872225   -2.9865799    179.63284    179.54755  0.019315879 
  510000      2040000    9711.6615   -34091.944    271.48247  0.044309275   -24380.282     949.8272   0.72741107 -0.027569249 -0.023916716   0.72832612    179.55284    179.57369   -0.0107466 
  512000      2048000    9828.0162   -33973.298    274.73509  0.075632797   -24145.282    715.40438  -0.93170715  0.035203276   0.03030472  -0.93286433    179.47284    179.44622  -0.13827669 
  514000      2056000    9837.3921   -34041.837    274.99718  0.061624749   -24204.445    773.26667    3.3802812   -0.1249241  -0.10803555    3.3843136    179.39284    179.48957  0.014991181 
  516000      2064000    9744.1326    -34095.38    272.39018  0.063227442   -24351.248    920.78431   -5.8414985   0.22150042   0.19026205   -5.8487919    179.31284    179.14577  0.070746012 
  518000      2072000    9911.3744   -33951.776    277.06531 -0.00028826408   -24040.402    610.97849   -0.6240152  0.023071364  0.021349191   -0.6248064    179.23284    179.21503  -0.12820472 
  520000      2080000    9846.0636    -33854.85    275.23959  -0.12494047   -24008.787    579.33729    6.7940298  -0.25434656  -0.23381467    6.8028084    179.15284    179.34724 -0.073001829 
  522000      2088000    9690.2226   -33880.733    270.88317  0.033547832    -24190.51    758.26745    -1.600619  0.063504425   0.05386057   -1.6027835    179.07284    179.02708 -0.0017612575 
  524000      2096000    9783.5579   -33889.936    273.49229  0.058744698   -24106.378    673.96613   -1.9079311  0.074699907   0.06494428   -1.9104971    178.99284    178.93829  0.094213402 
  526000      2104000    9907.4903   -33821.956    276.95673  0.059783043   -23914.466    485.92344   -9.1973418   0.36161357   0.31295942   -9.2097667    178.91284    178.64974   -0.1392191 
  528000      2112000    9658.8041   -33913.014    270.00488 -0.053047324    -24254.21    821.82811    5.9483295  -0.22700023  -0.20901582    5.9563278    178.83284    179.00306  -0.16637973 
  530000      2120000    9889.5933   -34046.235    276.45643  -0.16568482   -24156.641    729.37839    2.2181534 -0.088139844 -0.075628381    2.2211917    178.75284    178.81634   0.22627552 
  532000      2128000    9730.8107   -33998.417    272.01778 -0.033604249   -24267.607    835.01807   -9.5487741   0.36944056     0.333116   -9.5617227    178.67284    178.39969 -0.068389996 
  534000      2136000    9736.9166   -34029.295    272.18846  0.012338268   -24292.379    859.13429    8.6558191  -0.34833375  -0.30056401    8.6680378    178.59284    178.84054 0.0057827161 
  536000      2144000      9865.28   -34019.498    275.77677 -0.010362544   -24154.218     723.9676   -6.8874835   0.28768433   0.24255692   -6.8977551    178.51284     178.3158   0.05739476 
  538000      2152000    9881.7054   -33913.598    276.23593  0.031649187   -24031.893    600.60463  -0.16700165 0.0066299294  0.005907709  -0.16723758    178.43284     178.4281  -0.30418851 
  540000      2160000     9885.197   -33956.165    276.33353  0.062185744   -24070.968    638.93146    5.8806773  -0.24313521  -0.20339278    5.8892146    178.35284    178.52114   0.12494643 
  542000      2168000     9834.487   -33893.836    274.91597  -0.10946249   -24059.349    630.00947   -1.3014612  0.053600355  0.047170428   -1.3034183    178.27284    178.23564  0.033939311 
  544000      2176000    9796.1909   -33964.197    273.84543  0.098193184   -24168.006    736.38236    1.3561704 -0.054023026 -0.048222621    1.3581024    178.19284    178.23168   0.13204873 
  546000      2184000    9819.7587   -33814.656    274.50425 -0.039680933   -23994.897    564.60228  -0.64338283  0.025938102  0.023614424  -0.64433834    178.11284    178.09447  -0.14936666 
  548000      2192000    9893.5831   -33890.007    276.56796 -0.042859096   -23996.424     567.0079    3.7616414  -0.15686095  -0.13268012    3.7672477    178.03284    178.14051 -0.025994168 
  550000      2200000    9984.3929   -33896.413    279.10648 -0.025236943    -23912.02    484.22952    3.4304156  -0.14790601  -0.12240882     3.435784    177.95284    178.05104  0.013064358 
  552000      2208000    9896.3109   -33892.147    276.64422  0.067997068   -23995.837    564.59553    1.1637487  -0.04896604 -0.042410452    1.1655502    177.87284    177.90618  -0.17465244 
  554000      2216000    9749.7293   -33835.166    272.54663  0.036921629   -24085.437    657.11188    4.0059554  -0.16652418  -0.14289281    4.0119605    177.79284    177.90751  0.025545161 
  556000      2224000    9890.4211   -34001.312    276.47957  0.015818585   -24110.891    679.49175  -0.59781347  0.024962865  0.020922449  -0.59870012    177.71284    177.69577 -0.0011192065 
  558000      2232000       9810.5   -33730.736    274.24543  0.057387987   -23920.236    491.62281 -0.037002081 0.0015549262 0.0013186686 -0.037058206    177.63284    177.63182  -0.10272749 
  560000      2240000    9694.3552    -33999.85    270.99869  0.017282388   -24305.495    875.16631    5.6653028  -0.23509151  -0.20006581    5.6737069    177.55284    177.71498  0.079682706 
  562000      2248000    9781.2323   -34141.809    273.42727 -0.050836669   -24360.577    929.25733    2.3164485 -0.095207275 -0.086015393    2.3199993    177.47284    177.53916 -0.070587377 
  564000      2256000     9836.315   -34087.748    274.96707  0.019596224   -24251.433    820.05592    3.0254546  -0.12291861  -0.10806142    3.0298782    177.39284    177.47945  -0.12741871 
  566000      2264000    9905.1407   -33911.752    276.89104  0.069426939   -24006.612    576.02131   -2.8760203   0.11713268   0.10586103   -2.8803505    177.31284    177.23058  0.098517711 
  568000      2272000    9845.1457   -33854.495    275.21393   0.19855879   -24009.349    576.29829   -8.9269988   0.36399792   0.31306205   -8.9398999    177.23284    176.97745 -0.085580475 
  570000      2280000    9865.8618     -33953.8    275.79303  -0.13838087   -24087.938    657.78094    1.1432491 -0.047517622 -0.041547866    1.1449902    177.15284    177.18559  -0.14125358 
  572000      2288000    9863.8576   -33872.107    275.73701   0.02238779   -24008.249    578.27191  -0.83580563  0.035834474  0.030905069  -0.83714412    177.07284    177.04896   0.26645815 
  574000      2296000      9756.74   -33846.433    272.74261  0.065927834   -24089.693     659.6811   -1.1618998  0.048549834   0.04379754   -1.1637381    176.99284    176.95963 -0.0028678181 
  576000      2304000    9934.6647    -33883.53    277.71637  0.037086182   -23948.866    519.36894  -0.46659255  0.019646148  0.017474569   -0.4673328    176.91284    176.89953  -0.16166348 
  578000      2312000    9773.6937   -33998.697    273.21654 -0.024437816   -24225.003    795.55247   -3.2043306   0.14006719   0.11877315   -3.2095889    176.83284    176.74118  -0.19796829 
  580000      2320000    9825.2678   -33915.798    274.65826 0.0065677645   -24090.531    661.71776    7.1559337  -0.30506415  -0.26932849    7.1674953    176.75284    176.95766  0.088688355 
  582000      2328000    9789.5758   -34064.269    273.66051  0.012677164   -24274.693    840.14989   -5.1007844   0.22103321   0.19475886   -5.1092845    176.67284     176.5269  0.060241326 
  584000      2336000    9803.9081   -34081.461    274.06116  0.083994106   -24277.553    845.77608     4.967236   -0.2137945  -0.18469006     4.975264    176.59284    176.73503  -0.20453213 
  586000      2344000    9843.4649   -33823.873    275.16694  0.047295258   -23980.408    549.79758     7.770191  -0.34808715  -0.30524458    7.7839711    176.51284    176.73528  0.067731577 
  588000      2352000    9856.4268   -34026.759    275.52928 -0.050504317   -24170.332    741.20876   -2.5652528     0.113083  0.093871881   -2.5694594    176.43284    176.35946   0.19424904 
  590000      2360000    9703.6706    -33996.35    271.25909  0.039696391   -24292.679    859.10981   -9.8091565   0.43411467   0.38220978   -9.8261941    176.35284    176.07213 -0.092790922 
  592000      2368000     9778.652   -33974.184    273.35515 -0.022559326   -24195.532    764.60651    7.8335677   -0.3570779  -0.29945753    7.8474175    176.27284    176.49709  -0.28172419 
  594000      2376000     9883.027   -33893.277    276.27287   0.01040746    -24010.25    582.32435     4.810785  -0.21653586  -0.19069339    4.8194298    176.19284    176.33058   0.11569725 
  596000      2384000    9815.6379   -33765.844    274.38906   0.01814554   -23950.206    520.17267   -3.2163684   0.14030399   0.12328366   -3.2217867    176.11284    176.02083   0.20228603 
  598000      2392000    9818.0887   -34002.002    274.45757  0.026351148   -24183.914    753.38351    2.6634045  -0.11907143  -0.10604456    2.6681729    176.03284    176.10911  -0.18883518 
  600000      2400000    9791.1228   -33993.905    273.70376  -0.14485498   -24202.782    774.07043   -1.3451573  0.061812321    0.0525603   -1.3476021    175.95284    175.91438   -0.3411911 
  602000      2408000    9768.0043   -33972.454     273.0575 -0.035616344    -24204.45    774.85361    5.0984915  -0.23537334  -0.20101064    5.1078783    175.87284    176.01882   0.21197637 
  604000      2416000    9889.5693   -33951.841    276.45576 -0.0054523099   -24062.271    632.17787   -2.4912846   0.11336571  0.098001797   -2.4957874    175.79284    175.72157   0.13671862 
  606000      2424000    9740.4343   -33924.665     272.2868  0.028379907   -24184.231    754.26204   0.26872569 -0.012330754 -0.011340717   0.26924739    175.71284    175.72057  -0.10306868 
  608000      2432000    9962.8138   -33935.371    278.50326 0.0073969065   -23972.557    543.14005    4.3999077  -0.20465832  -0.18132861    4.4083957    175.63284    175.75883  -0.17210984 
  610000      2440000    9911.3647   -33915.364    277.06503  0.057301914   -24003.999    572.50901  -0.39423716  0.018569024  0.016159321   -0.3950049    175.55284    175.54159  0.044760395 
  612000      2448000    9860.6307   -34248.379     275.6468  0.042128338   -24387.748      953.639  -0.75327672  0.035338396  0.030846768  -0.75473581    175.47284    175.45131  0.065107234 
  614000      2456000    9841.9677   -34048.753    275.12509 -0.094927541   -24206.785    777.55223    4.0397529   -0.1964703   -0.1602388    4.0477007    175.39284    175.50853 -0.099854765 
  616000      2464000    9864.5888   -34069.626    275.75745 -0.062866962   -24205.037    776.75388    1.8642367 -0.088953668 -0.077115777    1.8679502    175.31284    175.36625  0.070709915 
  618000      2472000    9772.2253   -34108.675    273.17549  0.026194331   -24336.449    906.30471   -2.9381566   0.13982914   0.12447026   -2.9441143    175.23284    175.14876 -0.099046311 
  620000      2480000    9880.7413   -34168.216    276.20898  0.064892216   -24287.475     853.5921     5.826418  -0.27656565  -0.24655843    5.8381869    175.15284    175.31968   0.04392594 
  622000      2488000    9716.6782   -33971.245    271.62271  -0.10075752   -24254.567    827.79726  0.056058377 -0.0026626119 -0.0024017576  0.056172943    175.07284    175.07448   0.14895515 
  624000      2496000    9856.3118   -33946.962    275.52607  0.055286688    -24090.65    657.83428   -1.3594933  0.063821095  0.058514757   -1.3622478    174.99284    174.95396 -0.059675221 
  626000      2504000    9897.9916   -33872.593     276.6912 -0.036415392   -23974.601     543.2882    10.469105  -0.49550929  -0.45120582    10.490532    174.91284    175.21261  -0.17618217 
  628000      2512000    9789.7705   -33970.484    273.66596   0.09484808   -24180.713    749.83947   -1.4181445  0.066641833   0.06047342   -1.4209968    174.83284    174.79228   0.14412392 
  630000      2520000    9721.0375     -34231.4    271.74458   0.16862473   -24510.362    1075.0898  -0.73737546  0.034921337  0.032231612  -0.73890524    174.75284    174.73177 0.0038316362 
  632000      2528000    9784.2473   -34052.015    273.51156  0.014831369   -24267.768    835.60788   0.97846151 -0.046835288 -0.041068826   0.98044231    174.67284    174.70089  -0.31379289 
  634000      2536000    9810.7365   -34120.764    274.25204 -0.0030063182   -24310.027    881.79049    6.7380465  -0.32428281  -0.29058277     6.752101    174.59284     174.7858   0.05702487 
  636000      2544000    9751.3571   -33918.854    272.59214 -0.065043716   -24167.497      737.819   -3.6318719   0.17821282   0.15394766    -3.639499    174.51284    174.40889   0.19950225 
  638000      2552000    9792.2106    -33997.51    273.73417  0.055321759   -24205.299    774.14983   -5.1624616   0.25706128   0.22382458   -5.1737015    174.43284    174.28506  -0.16503762 
  640000      2560000    9826.2592   -34157.657    274.68597  0.030715502   -24331.398    898.80193    3.7697605  -0.18598639  -0.16140012     3.777795    174.35284    174.46082  0.055015313 
  642000      2568000    9906.9993   -34210.402      276.943 -0.064655185   -24303.403     872.3175   -1.2181871  0.061748424   0.05402888    -1.220947    174.27284    174.23799  0.096879959 
  644000      2576000    9893.8925   -34126.193    276.57661  0.027987612   -24232.301    800.33779   -1.0744031  0.055237395  0.048049916   -1.0768946    174.19284    174.16211  -0.13197098 
  646000      2584000    9769.5549   -33989.784    273.10084 -0.0066193884   -24220.229    789.73213    2.7992938  -0.14099729   -0.1265758    2.8056991    174.11284    174.19304 -0.047108051 
  648000      2592000    9831.0468   -34116.603    274.81981 -0.0069532212   -24285.557    856.73138  -0.36375165  0.017952051  0.015926354  -0.36454243    174.03284    174.02246  0.093565206 
  650000      2600000    9905.1551   -34027.524    276.89145  0.014894183   -24122.369    690.59784   -4.0308983   0.20804925    0.1829065    -4.040406    173.95284    173.83744 -0.022984252 
  652000      2608000    9650.1082   -34011.768     269.7618   -0.1081794    -24361.66    931.09987     1.154871 -0.058924058 -0.052313667     1.157556    173.87284    173.90595  -0.13004859 
  654000      2616000     9803.765   -33836.305    274.05716  -0.04643492    -24032.54     605.9623    1.3483891 -0.068496498 -0.061358892    1.3515214    173.79284    173.83149   0.15837733 
  656000      2624000    9794.3871   -33909.413    273.79501   0.14948133   -24115.026     680.7694   -1.7422981  0.087764592  0.078359128   -1.7462662    173.71284    173.66298  0.072033638 
  658000      2632000    9851.3611   -33965.346    275.38768  -0.19040067   -24113.985    686.98847    3.4758566   -0.1729464  -0.15818506    3.4837498    173.63284    173.73241   -0.2670792 
  660000      2640000     9821.485   -33964.929    274.55251 -0.011032021   -24143.444    714.49149  -0.41426096  0.021496989  0.018195693  -0.41521723    173.55284    173.54101  -0.04657414 
  662000      2648000     9857.071   -33911.438    275.54729  0.022218014   -24054.367    623.57954   -1.7877607  0.092205315  0.082993434   -1.7920597    173.47284    173.42168   0.13252597 
  664000      2656000    9859.8635   -34022.473    275.62536  0.049818593    -24162.61    730.33498  -0.44576934  0.023232425  0.020601821  -0.44684951    173.39284    173.38011 -0.067255573 
  666000      2664000    9773.2199    -34109.37    273.20329 0.00053571252    -24336.15    904.60647    2.3202254  -0.12105869  -0.10958998    2.3259645    173.31284    173.37933  -0.17638389 
  668000      2672000    9789.6773   -34008.285    273.66335 -0.010255527   -24218.607    788.95317  -0.83336557  0.043060673  0.039112465  -0.83539342    173.23284    173.20901  0.083648639 
  670000      2680000    9854.4361   -33937.805    275.47363  0.011758968   -24083.369    653.52931   -4.4280417   0.22480742   0.20799526   -4.4386207    173.15284    173.02606  0.097532868 
  672000      2688000    9907.6474   -34059.504    276.96112   0.10688433   -24151.857    717.05088      3.66186  -0.19062204   -0.1725981    3.6708781    173.07284    173.17776  -0.12696737 
  674000      2696000    9839.9514   -33823.731    275.06872  -0.13077067    -23983.78    553.47213   -5.1542204   0.27005294   0.24428206   -5.1670679    172.99284    172.84525 -0.025736539 
  676000      2704000    9809.1474   -33857.636    274.20762 -0.053649378   -24048.489    618.66754    5.1001482  -0.26989975  -0.24991912    5.1133958    172.91284    173.05898  0.052177724 
  678000      2712000      9738.25   -33890.722    272.22574  0.023611422   -24152.472    721.85541  -0.26673334  0.013940191  0.013150336   -0.2674209    172.83284    172.82524  0.056271312 
  680000      2720000    9889.9458   -34144.133    276.46628  0.035211709   -24254.187    821.16894    -2.555955   0.13293467   0.12190448   -2.5623111    172.75284    172.67967  -0.13200878 
  682000      2728000    9778.4545   -33997.785    273.34962 -0.022376625    -24219.33    790.35454   0.84571885 -0.044340977 -0.041192184   0.84788165    172.67284     172.6971  0.049616281 
  684000      2736000    9779.6844   -33999.243    273.38401 -0.088820785   -24219.559    787.43622   -2.0411328   0.10560967  0.099903959   -2.0463034    172.59284    172.53441   0.06167465 
  686000      2744000    9805.4386   -34192.879    274.10395   0.11895061    -24387.44    953.36704   -1.1434281  0.061591247  0.057034651   -1.1465052    172.51284    172.48012  -0.23613948 
  688000      2752000    9972.2924   -34121.043    278.76822  0.063897791   -24148.751    714.31909    6.8858087  -0.37268867  -0.33940576    6.9042345    172.43284    172.63014  0.025008783 
  690000      2760000     9770.438   -33891.371    273.12553   0.03645753   -24120.933    689.01924   -9.0238351   0.47876121   0.43882616   -9.0471753    172.35284    172.09439  0.084958516 
  692000      2768000    9856.3395   -34073.225    275.52684  0.055395736   -24216.885    785.47657    0.4421896 -0.023620618 -0.021237475     0.443329    172.27284    172.28554  -0.11497003 
  694000      2776000    9756.9484   -33875.318    272.74844  0.054158181    -24118.37     686.7082    4.8346258  -0.25728698  -0.24127618    4.8474754    172.19284    172.33138  0.043005555 
  696000      2784000    9779.4805   -34143.877    273.37831  0.014146789   -24364.396    931.37106   -8.0312459   0.42725015   0.39558191   -8.0523251    172.11284    171.88281    0.0607319 
  698000      2792000    9754.3837   -34019.879    272.67674  0.031652095   -24265.496    837.04009    2.7063463  -0.14855803  -0.13544285    2.7138026    172.03284    172.11042  -0.21124818 
  700000      2800000    9719.3077   -34011.182    271.69622 -0.052613295   -24291.874    860.99765   -4.4877987   0.24240136   0.23182693   -4.5003154    171.95284     171.8243  0.083102556 
  702000      2808000    9938.4027   -33975.358    277.82086  0.058057462   -24036.955    607.02526   0.64695897 -0.035512539 -0.032690502   0.64875705    171.87284    171.89141 -0.001008434 
  704000      2816000    9848.6602   -34041.575    275.31217  -0.08126931   -24192.914    763.69862   -2.2594623    0.1244565   0.11384483   -2.2657493    171.79284    171.72814 -0.073038661 
  706000      2824000    9825.0179   -33993.129    274.65127  0.065558754   -24168.111    737.98238    1.2306441 -0.067513755 -0.061953205    1.2340507    171.71284    171.74814  0.033099755 
  708000      2832000    9957.6327   -34010.756    278.35842 -0.010805939   -24053.124    623.30959    5.9354883  -0.32242746  -0.30656119    5.9521391    171.63284    171.80294  0.014274534 
  710000      2840000    9782.1352   -34145.192    273.45252  0.033290494   -24363.057    931.21035   -4.7571374   0.26642365   0.23842484   -4.7705539    171.55284    171.41658  0.071516467 
  712000      2848000     9914.945   -33956.563    277.16512 -0.049479733   -24041.618    610.21544    4.2118495  -0.23869798  -0.21151407    4.2239071    171.47284    171.59356  -0.17975151 
  714000      2856000    9774.9833   -33758.684    273.25259  0.030048791   -23983.701     554.1791   -2.0227163   0.11202449    0.1015075   -2.0283576    171.39284    171.33492   0.16816838 
  716000      2864000    9948.8005   -33878.079    278.11152 -0.056045779   -23929.279    499.30971   -1.2377207  0.067952723  0.062845666   -1.2411767    171.31284    171.27742 -0.016728216 
  718000      2872000    9863.6065   -33898.411    275.72999 -0.049538705   -24034.804    605.73872     2.244773  -0.12440409  -0.11515333    2.2511647    171.23284     171.2972 -0.096542403 
  720000      2880000    9687.3144   -33947.915    270.80187  -0.02737055     -24260.6    828.94363    4.3124334  -0.23286419  -0.22439384    4.3245416    171.15284    171.27644  0.052098043 
  722000      2888000    9810.9904   -33804.534    274.25914 -0.015131069   -23993.544    562.52637   -2.9386272   0.16264468   0.14913169   -2.9469006    171.07284    170.98868 -0.033906305 
  724000      2896000    9860.3886   -34047.053    275.64003  0.062319415   -24186.664    753.28444    5.4520155  -0.30096877  -0.27781071    5.4673791    170.99284    171.14909  -0.24980293 
  726000      2904000     9831.012   -33924.584    274.81883 -0.048967513   -24093.571    661.59341    6.9195054   -0.3754782  -0.36603907     6.939346    170.91284    171.11115 0.0059915171 
  728000      2912000    9928.4565   -33863.808    277.54282  0.073684583   -23935.352    504.10429  -0.24387825  0.013683541  0.012528459  -0.24458291    170.83284    170.82589     0.147559 
  730000      2920000    9886.3288    -33850.69    276.36517  0.055405057   -23964.361    533.79665   -4.4744247   0.25280793   0.23733172   -4.4878407    170.75284    170.62465  -0.25676827 
  732000      2928000    9924.7458   -34061.874    277.43909 -0.082392456   -24137.128    707.97442    2.7467559  -0.15572479  -0.14305308    2.7548834    170.67284    170.75159  0.098888543 
  734000      2936000    9784.3294   -34085.165    273.51385  -0.15589205   -24300.836    870.97869   -6.6329186    0.3807988   0.35120282   -6.6531166    170.59284    170.40279 -0.045391706 
  736000      2944000    9774.0004   -33836.832    273.22511 -0.098067133   -24062.831    632.98453  -0.72492145   0.04146242  0.038487976  -0.72712555    170.51284     170.4921   0.11242067 
  738000      2952000    9835.2724   -33972.148    274.93793  0.012146948   -24136.876    706.27629   0.70911218 -0.041206891 -0.037718668   0.71130921    170.43284     170.4532  0.037389127 
  740000      2960000    9772.0686   -33933.986    273.17111 0.0016015567   -24161.917     729.9019   0.49350385 -0.028414828 -0.026077902    0.4950086    170.35284    170.36702  0.006106387 
  742000      2968000    9870.5697   -33887.754    275.92464 -0.0094007085   -24017.184     587.8156     3.718838  -0.21864218  -0.20107765    3.7306826    170.27284    170.37947 -0.048399221 
  744000      2976000     9913.846    -34031.77     277.1344   0.10566728   -24117.924    683.97205  -0.39748083  0.023681684  0.020851568  -0.39873126    170.19284    170.18149  0.026423939 
  746000      2984000    9770.3024   -33921.103    273.12174  0.049576011   -24150.801    718.33137   -7.5973172   0.44414876   0.40448815   -7.6210306    170.11284    169.89513  -0.13531396 
  748000      2992000     9926.642   -33908.212     277.4921  0.031977281    -23981.57    549.89005      5.63244  -0.32810922  -0.30899368    5.6504436    170.03284    170.19432  0.037118015 
  750000      3000000    9837.4067   -33997.788    274.99759   0.11155133   -24160.381    727.36014   0.50775915 -0.029914107 -0.027376309   0.50937577    169.95284    169.96743  0.073076426 
  752000      3008000    9870.7518   -33952.804    275.92973 -0.018849291   -24082.052    652.55637   -6.7249252    0.4007849   0.36678782   -6.7468349    169.87284    169.68011  -0.15274057 
  754000      3016000    9960.9497   -33948.445    278.45115  0.032048532   -23987.495    558.99767    3.6935701  -0.22672821  -0.20120972    3.7059886    169.79284    169.89876 -0.038146395 
  756000      3024000    9786.2535   -33991.766    273.56764  0.037077376   -24205.513    775.70719    3.8202508  -0.23180088   -0.2080905    3.8329296    169.71284    169.82239    0.0458758 
  758000      3032000    9883.4399   -34105.918    276.28442 -0.036609268   -24222.478    792.35463   -5.1129045   0.30880312   0.28058251   -5.1299004    169.63284    169.48631  0.073096595 
  760000      3040000    9909.3532   -33883.302     277.0088  0.051571167   -23973.949    543.29582    6.8051596  -0.40821285  -0.37602487    6.8277544    169.55284    169.74796  -0.12879117 
  762000      3048000    9986.5135   -33886.496    279.16576 -0.072445528   -23899.982    469.47603    3.7274563  -0.22098106  -0.20299742    3.7395148    169.47284    169.57972  0.092069283 
  764000      3056000    9866.6021   -33949.271    275.81373  0.039822357   -24082.669    651.58679    1.2690705 -0.075532055 -0.069990828    1.2732415    169.39284    169.42926  0.055959816 
  766000      3064000    9730.5471   -34075.058    272.01041 -0.092605631   -24344.511    911.72709   -6.4874104   0.39716621   0.35921853   -6.5094756    169.31284    169.12689 -0.0047479033 
  768000      3072000    9729.3295   -34213.624    271.97637  0.018589276   -24484.295    1050.2733     5.063526  -0.30559427  -0.27752236     5.080325    169.23284    169.37803 -0.0029995176 
  770000      3080000    10040.397   -33911.733    280.67203 -0.020132572   -23871.337    443.45782    -4.058735   0.24621845   0.22910272   -4.0726455    169.15284    169.03652  0.018196202 
  772000      3088000    9739.6488   -33956.982    272.26484 -0.048367582   -24217.334    786.82521    3.1188741  -0.18701336  -0.17849002      3.12957    169.07284    169.16229  -0.07663672 
  774000      3096000    9825.3413   -33879.192    274.66031   0.14730602   -24053.851    622.82472   0.57982369 -0.036377586 -0.032857924   0.58189216    168.99284     169.0095  0.022291048 
  776000      3104000    9810.5937   -34078.331    274.24805  0.072070041   -24267.738     834.5306   -6.1916747   0.39550577   0.35352513   -6.2143576    168.91284    168.73532 -0.0006631128 
  778000      3112000    9894.3098   -34086.572    276.58827 -0.086362063   -24192.262    760.71253    2.3489669  -0.14977167  -0.13516748    2.3576148    168.83284    168.90024  -0.17185812 
  780000      3120000    9785.6298   -33960.082    273.55021 -0.078734756   -24174.452    744.87555    7.9863876  -0.50024612  -0.45761852    8.0151137    168.75284    168.98188   0.14446493 
  782000      3128000    9903.5747   -33970.569    276.84727 -0.027296402   -24066.994    637.71872   -5.0371772   0.31283308   0.29334466   -5.0554001    168.67284    168.52844   0.23572797 
  784000      3136000    10007.237   -34105.197    279.74508  0.058575018    -24097.96     663.8302    5.3371192  -0.33585169   -0.3130729    5.3568323    168.59284    168.74593  -0.29964324 
  786000      3144000    9844.6501   -34083.664    275.20007  0.023271802   -24239.014     807.7793    2.9521606  -0.19046698  -0.17294167    2.9633493    168.51284    168.59755  0.013410094 
  788000      3152000     9767.447   -33923.973    273.04192 -0.033333914   -24156.526    727.51084   -4.3516828    0.2754163   0.25279628   -4.3677114    168.43284    168.30809  0.054279881 
  790000      3160000    9814.5175   -34037.893    274.35774 -0.030940897   -24223.376    791.09795   -5.7248037   0.35658372   0.33032298   -5.7454019    168.35284    168.18872  -0.03228359 
  792000      3168000     9879.519   -34032.097    276.17481 -0.059523449   -24152.578    722.25008    3.0233077  -0.18957989   -0.1696023    3.0339899    168.27284    168.35956 -0.093327034 
  794000      3176000    9745.7439   -34112.298    272.43522  -0.03460852   -24366.554    936.83561    2.9153129   -0.1867976  -0.16823141    2.9261313    168.19284    168.27648   0.14041296 
  796000      3184000    9665.8786   -34222.457    270.20265 0.00080772418   -24556.579    1124.8649    3.7301159  -0.23157575  -0.21588078    3.7435273    168.11284    168.21984  -0.06908894 
  798000      3192000    9896.0769   -33933.203    276.63767 -0.088770841   -24037.126    608.55359   -6.0955913   0.38857994   0.35343326   -6.1181814    168.03284    167.85807 -0.005242127 
  800000      3200000    9860.3527   -34097.105    275.63903 -0.061707514   -24236.753    806.13916    4.0276469  -0.25041015  -0.23429793    4.0422197    167.95284    168.06837 -0.080807303 
  802000      3208000    9789.7115   -33770.939    273.66431  -0.10273797   -23981.228    554.19786  -0.49023313  0.030930873  0.028578089  -0.49203856    167.87284    167.85882   0.10063702 
  804000      3216000    9760.9187    -33862.93    272.85942  0.091471384   -24102.011     670.7442   0.10047255 -0.0063619259 -0.0058921135   0.10084604    167.79284    167.79576 -0.026295121 
  806000      3224000    9943.5756   -33901.761    277.96546  0.056866329   -23958.185    527.62404   -3.1498516    0.2009292   0.18474046   -3.1616557    167.71284    167.62255 -0.048192887 
  808000      3232000    9902.2329   -33985.603    276.80976 0.0045607201    -24083.37    654.46024    1.9879115  -0.12854606  -0.11747251     1.995524    167.63284    167.68989  -0.14774046 
  810000      3240000    9672.7162   -34042.763    270.39379 0.0086147616   -24370.047    939.88853    2.5991904  -0.16881225  -0.15369999    2.6091976    167.55284    167.62743  0.017531893 
  812000      3248000    9909.3731   -33918.814    277.00936  -0.11483914    -24009.44    584.03084    4.6770487  -0.29680442  -0.28512726    4.6951225    167.47284    167.60702 -0.00091603576 
[...]
 4224000      7325680    9938.7383   -30319.307    277.83024   0.88483268   -20380.568    6525.5741     664.2548    -83.06156   -166.70715    689.87313      30.9348    50.645501    16495.988 
 4226000      7333680     9866.277   -30197.296    275.80464   0.84662019    -20331.02    6458.9342    667.81177   -82.457324   -168.42693    693.64213      30.8548    50.673187    16551.483 
 4228000      7341680    9855.3128   -30165.046    275.49814   0.85364907   -20309.733    6389.8852     672.1355    -84.74355   -171.67432    698.87028      30.7748    50.742563    16606.793 
 4230000      7349680    9771.6918   -30029.451    273.16058    0.8428675    -20257.76    6462.3792    669.05577   -82.472959    -170.7046    695.39735      30.6948    50.563336    16662.381 
 4232000      7357680    9873.7628   -30172.762     276.0139   0.77518201   -20298.999    6534.9107    669.60477   -84.651621    -172.2726    696.57325      30.6148    50.516933    16718.046 
 4234000      7365680      9710.11    -30257.83     271.4391   0.73844959    -20547.72    6740.3088    674.52357   -83.348476   -173.58481    701.47038      30.5348    50.576851    16774.047 
 4236000      7373680    9934.8611   -29984.868    277.72186    0.6971418   -20050.007     6305.628    674.61154   -84.309493   -172.12349    701.30972      30.4548    50.492261    16830.071 
 4238000      7381680    9872.3367   -30046.096    275.97403    0.7706331   -20173.759    6395.2026     678.5593   -86.578829   -173.28968    705.66843      30.3748    50.536795    16886.286 
 4240000      7389680    9754.0094    -30094.98    272.66628   0.92870566    -20340.97    6633.2451    677.69885   -84.521045   -174.24962    704.82798      30.2948    50.432782    16942.803 
 4242000      7397680    9811.0944   -29891.693    274.26205   0.80432467   -20080.598    6432.2275    678.34509   -86.005153   -171.63061    704.98653      30.2148    50.357313     16999.38 
 4244000      7405680    9895.5081   -29861.866    276.62177   0.79255629   -19966.358    6394.8841    677.58217   -83.939355   -170.60691    703.75431      30.1348    50.242106    17055.899 
 4246000      7413680    9922.4548   -29727.092    277.37505   0.80791161   -19804.637    6404.9917    671.70357   -83.537551   -170.58406    698.04235      30.0548    49.998907    17112.339 
 4248000      7421680    9823.8062    -30016.99     274.6174   0.90869719   -20193.184    6656.7635    681.66021   -84.449475   -169.89289    707.57046      29.9748    50.191139    17168.836 
 4250000      7429680    9843.3763   -29731.086    275.16447   0.76834206    -19887.71    6386.6177    681.71489   -86.309102   -174.43324    708.95092      29.8948    50.150581    17225.562 
 4252000      7437680    9856.3733   -29744.731    275.52779   0.84171012   -19888.358    6408.7394     683.9849   -84.345343   -172.89355    710.52211      29.8148    50.115472    17282.378 
 4254000      7445680    9798.1476   -29904.886    273.90013   0.82681944   -20106.738    6601.1923     687.3345   -84.809745    -176.0331    714.56914      29.7348    50.151101    17339.263 
 4256000      7453680    9820.7734   -29912.912    274.53262    0.7921394   -20092.139     6582.591    690.64792   -86.033478   -174.84467    717.61199      29.6548     50.15804    17396.375 
 4258000      7461680    9815.6263    -29841.63    274.38874   0.83814333   -20026.003    6643.3832    686.85952   -87.394172   -174.56103    714.06253      29.5748    49.976627    17453.593 
 4260000      7469680    9686.6646   -29986.841     270.7837   0.72928002   -20300.176    6932.8758    688.85662   -85.803541   -175.86191     716.1097      29.4948    49.955117    17510.925 
 4262000      7477680    9943.4609   -29635.458    277.96226   0.67470899   -19691.997    6421.4986    686.76171   -85.313933   -176.60794    714.22019      29.4148    49.821131    17568.371 
 4264000      7485680    9998.4534   -29818.085    279.49953   0.78813551   -19819.632    6474.3772    692.99917   -86.547751   -177.70349    720.63645      29.3348    49.924453    17626.113 
 4266000      7493680     9806.581   -29752.771    274.13588   0.88656479    -19946.19    6614.1819     695.1109   -86.156655   -178.42831    722.79927      29.2548    49.906248    17683.936 
 4268000      7501680    9806.3108   -29783.058    274.12833   0.90081745   -19976.747    6584.8313    700.58416   -90.522031   -178.15062    728.52594      29.1748    49.989867     17741.92 
 4270000      7509680    9913.8554   -29768.092    277.13466   0.81318281   -19854.236    6503.0818    701.39523   -87.521543   -180.04083    729.40386      29.0948     49.93495    17799.929 
 4272000      7517680     9863.969   -29804.219    275.74012   0.89362626    -19940.25    6674.9547    700.44536   -88.546129   -177.05544    727.88237      29.0148    49.811479    17858.164 
 4274000      7525680    9831.7909   -29480.455     274.8406   0.94952972   -19648.664    6417.7622     700.9308   -91.385822   -178.94377    729.16132      28.9348    49.768021    17916.567 
 4276000      7533680    9856.0822   -29632.414    275.51965   0.85038309   -19776.332    6509.2523    705.29825   -91.855538   -180.33565    733.76018      28.8548    49.819417    17975.126 
 4278000      7541680    9876.0892   -29499.203    276.07893   0.83829163   -19623.114    6517.7859    701.78953   -89.130262   -174.78799    728.69993      28.7748    49.594838    18033.893 
 4280000      7549680    9725.3758   -29641.284    271.86585   0.86255065   -19915.908     6705.382    709.46352   -89.523296   -176.86229    736.63639      28.6948    49.741594    18092.787 
 4282000      7557680    9845.9915   -29587.934    275.23757   0.96603359   -19741.942    6600.3782    708.63409   -89.198947   -177.93086    736.05578      28.6148    49.645005    18151.644 
 4284000      7565680    9868.6335   -29496.126    275.87051   0.79685903   -19627.492    6445.3949    712.29286   -91.991982   -181.67439    740.83009      28.5348    49.701414    18210.836 
 4286000      7573680    9805.8933   -29777.889    274.11666   0.74659955   -19971.996    6814.0071    713.85146   -90.326613   -182.95569    742.43895      28.4548    49.667382    18270.148 
 4288000      7581680    9851.7064   -29560.607    275.39733    0.8650455   -19708.901    6660.9424    711.95465   -90.203921   -180.62942    740.02916      28.3748     49.51853    18329.668 
 4290000      7589680    9835.2797    -29657.34    274.93813   0.89940639    -19822.06    6662.5633    719.81457   -91.803457   -181.86011    748.08688      28.2948    49.668751    18389.269 
 4292000      7597680    9901.4745   -29708.535    276.78856   0.72879558   -19807.061    6684.4778    721.00832   -91.047979   -182.62952    749.33055      28.2148    49.624284    18449.064 
 4294000      7605680    9827.5815    -29598.16    274.72293   0.86590312   -19770.578    6735.9137    720.16178   -89.857424   -180.12294    747.76441      28.1348    49.499538    18508.812 
 4296000      7613680    9760.7232   -29525.846    272.85396   0.94445412   -19765.123    6839.0221    717.56328   -92.974489   -179.61925     745.5229      28.0548    49.355494    18568.771 
 4298000      7621680    9772.9578   -29516.893    273.19597   0.82799511   -19743.935    6863.9606     717.9044   -93.084645   -181.05972    746.21317      27.9748    49.295217     18628.75 
 4300000      7629680    9899.8182   -29301.466    276.74226   0.82045728   -19401.648    6478.3547    722.89696   -91.524098    -182.6256    751.20489      27.8948    49.357837    18688.937 
 4302000      7637680    9870.2034   -29537.258     275.9144    1.0448784   -19667.055    6732.3828      725.667    -92.37271   -183.67073    754.22824      27.8148    49.364219    18749.226 
 4304000      7645680    9673.3105   -29306.988     270.4104   0.84128836   -19633.677    6762.5843    725.95914   -88.470549   -184.77835     754.3121      27.7348    49.286615    18809.592 
 4306000      7653680    9837.3332   -29429.847    274.99553   0.88211204   -19592.514    6720.0219    728.84339   -92.306252   -182.90403    757.09115      27.6548    49.286016    18870.054 
 4308000      7661680    9855.7772   -29222.452    275.51112   0.81218938   -19366.675    6574.6902    727.08942   -94.837389   -184.94633    756.21313      27.5748     49.18093    18930.633 
 4310000      7669680    9939.6197   -29352.366    277.85488   0.87025371   -19412.747    6579.0858    732.37033   -89.824242   -186.19832    760.98917      27.4948    49.237388    18991.361 
 4312000      7677680    9818.5214   -29529.835    274.46966    1.0205764   -19711.314    6830.4281    736.89211   -92.582938   -186.16322    765.66202      27.4148    49.290898    19052.358 
 4314000      7685680    9783.7914   -29383.324    273.49881   0.78929503   -19599.533     6765.938    737.51123   -93.979891   -186.89068    766.60495      27.3348    49.237839    19113.387 
 4316000      7693680    9850.3644   -29442.858    275.35981   0.95942328   -19592.493    6789.7839    738.17704   -94.957006   -188.66695    767.80036      27.2548    49.191993    19174.621 
 4318000      7701680    9849.0216   -29380.333    275.32228   0.77569334   -19531.312    6852.3586    735.27455   -93.165892   -189.67565    765.03947      27.1748    49.033111    19236.073 
 4320000      7709680    9813.0063   -29165.177     274.3155   0.86340819    -19352.17    6699.3479    737.51913   -95.028078   -186.46554    766.63825      27.0948     48.99879    19297.653 
 4322000      7717680    9846.5712   -29316.351    275.25378   0.87564857    -19469.78    6808.2501    739.98838   -94.120426   -190.25869    769.83103      27.0148    49.010013    19359.187 
 4324000      7725680    9762.1843   -29123.102     272.8948   0.85471272   -19360.918    6752.3015    740.40063   -94.776175   -190.15598    770.28236      26.9348    48.942907    19420.703 
 4326000      7733680    9760.0536   -29390.088    272.83524   0.83208116   -19630.034    6937.7997    747.12757    -92.61445   -191.63336    776.85287      26.8548    49.050637    19482.459 
 4328000      7741680     9862.564   -29242.216    275.70085   0.88384519   -19379.652    6726.5203    748.02266   -95.188777   -190.72512     777.8013      26.7748    48.997735    19544.329 
 4330000      7749680    9972.5162   -29072.221    278.77448   0.76482708   -19099.704    6528.7066    747.36302   -96.166718   -189.74343    777.04704      26.6948    48.896184    19606.201 
 4332000      7757680    9846.5315   -29115.872    275.25267   0.88349732   -19269.341    6842.3632    743.63775   -95.367082   -188.59666    773.08518      26.6148    48.702988    19668.296 
 4334000      7765680    9733.1718   -28913.676    272.08378   0.79302595   -19180.504    6745.2587    746.98004   -95.537215   -189.05088    776.43208      26.5348    48.718614    19730.457 
 4336000      7773680    9802.6712   -29085.375    274.02658   0.89409012   -19282.704    6850.6994    749.07598   -95.766516   -191.57843    779.09456      26.4548    48.714685    19792.792 
 4338000      7781680    9852.6218   -29014.842    275.42292   0.88343984    -19162.22    6705.0728    753.12626   -95.949101   -191.50767    782.99462      26.3748    48.746115    19855.343 
 4340000      7789680    9929.3187   -29077.144    277.56692   0.84340429   -19147.826    6773.9994    753.10798   -96.366222   -187.18975    781.98343      26.2948    48.637224    19918.061 
 4342000      7797680    9890.7732    -28944.13    276.48941   0.80393446   -19053.356    6631.3552    757.27599   -98.324994   -190.33303    786.99516      26.2148    48.700416    19980.889 
 4344000      7805680    9766.2771   -28902.901    273.00921   0.74514925   -19136.624    6711.2098    760.37155   -97.341866   -190.86215    789.98019      26.1348    48.705703    20043.801 
 4346000      7813680    9826.7281   -28947.944    274.69908    1.0321404   -19121.216    6758.1202    761.27139   -95.134948   -187.85103    789.85619      26.0548     48.62216    20106.566 
 4348000      7821680     9838.966    -28994.68    275.04118   0.94400312   -19155.714     6985.902    754.75802   -95.187579   -189.82961    784.06353      25.9748    48.376655    20169.407 
 4350000      7829680    9892.8995   -28765.042    276.54885   0.82302052   -18872.143     6640.611    760.85142   -97.328052   -187.92309    789.73586      25.8948    48.458722    20232.321 
 4352000      7837680    9728.4099   -28855.226    271.95066   0.90356284   -19126.816    6907.8567    762.67329    -98.92138   -188.92602    791.92741      25.8148    48.441338     20295.24 
 4354000      7845680    9706.2845   -28898.648    271.33216   0.82108445   -19192.363    7029.7595     762.6978   -96.396071   -191.30737    792.21124      25.7348    48.369447    20358.331 
 4356000      7853680    9790.6633   -28834.001    273.69091   0.83451834   -19043.338     6886.843    765.34219    -98.66984   -189.83471    794.68335      25.6548    48.360079    20421.613 
 4358000      7861680    9743.3516   -28674.229    272.36835   0.88358766   -18930.877    6875.0231    763.06003   -97.705233   -192.89466    793.10483      25.5748    48.234978    20485.039 
 4360000      7869680     9882.537   -28871.588    276.25918   0.96788584   -18989.051    6954.9441    766.00113   -99.008939   -187.50231    794.80665      25.4948    48.203602    20548.499 
 4362000      7877680    9818.1197   -28910.932    274.45844   0.97631937   -19092.812    7089.0003    766.38461   -98.323429   -192.58496    796.30512      25.4148    48.166415    20612.235 
 4364000      7885680    9922.5332   -28516.325    277.37724    1.0037514   -18593.792    6701.2736    763.36677   -100.94293    -194.8889    794.29213      25.3348    48.028901    20675.948 
 4366000      7893680     9965.629   -28616.748    278.58195   0.87768907   -18651.119    6728.1646     768.4334   -101.18521   -191.88468    798.46607      25.2548    48.068156     20739.71 
 4368000      7901680    9855.6212    -28571.88    275.50676   0.95383368   -18716.259     6807.346    770.59094   -100.74725   -192.20328    800.56386      25.1748    48.048093    20803.709 
 4370000      7909680    9837.2478   -28639.463    274.99315   0.96887898   -18802.215    6921.3014     771.9183   -98.514115   -194.48514     802.1143      25.0948    48.012392    20867.795 
 4372000      7917680    9797.4863   -28597.539    273.88165   0.91320659   -18800.053    6910.4675    775.15989   -99.687422   -194.45293    805.37096      25.0148    48.025439    20932.109 
 4374000      7925680    9814.9532   -28406.799    274.36992   0.89824109   -18591.846    6735.8219    776.92895   -97.628173   -193.98616    806.70967      24.9348    47.983688    20996.514 
 4376000      7933680    9833.6311   -28176.987    274.89205    1.0621504   -18343.356    6708.1043    769.52921   -97.548079   -195.04365    799.83302      24.8548    47.707212    21061.117 
 4378000      7941680     9824.891   -28400.765    274.64772   0.78532998   -18575.874    6813.6011    778.13169   -98.128128   -196.18383    808.45912      24.7748    47.873672    21125.811 
 4380000      7949680    9787.1818   -28537.359    273.59359   0.97588591   -18750.177    6960.1875     782.1474   -97.213992   -196.01402      812.174      24.6948    47.899812    21190.549 
 4382000      7957680    9858.1686   -28202.178    275.57797   0.84979686   -18344.009    6625.5565    781.74648   -99.147672   -196.01571    812.02215      24.6148    47.815473      21255.4 
 4384000      7965680    9771.5048    -28364.51    273.15535   0.94926607   -18593.005    6892.6455    783.56583   -97.808274   -196.96643    813.84129      24.5348    47.787449     21320.54 
 4386000      7973680    9746.5929   -28350.714    272.45896   0.82956022   -18604.121    6892.5377    787.27793   -97.406325   -196.51807    817.25998      24.4548    47.805125    21385.806 
 4388000      7981680    9856.5581   -28339.075    275.53295   0.89409466   -18482.517    6743.9753     789.8212   -100.35822    -201.3039    821.22626      24.3748    47.838448     21451.23 
 4390000      7989680    9908.4853   -28318.946    276.98454   0.83675032   -18410.461    6778.3067    788.66031   -101.39924   -198.25842    819.49576      24.2948    47.709005    21516.705 
 4392000      7997680    9895.9655   -28412.599    276.63456   0.92892933   -18516.633    6888.3952    791.39474    -101.3936   -198.05363    822.07758      24.2148    47.702771    21582.307 
 4394000      8005680    9925.2035   -28157.338    277.45189   0.97222552   -18232.135    6697.4765    790.20299   -98.826566   -199.28754    820.91594      24.1348    47.589581    21648.106 
 4396000      8013680    9943.8887   -28362.199    277.97422    0.9133414    -18418.31    6812.5676     796.4217   -98.668166   -198.34946     826.6592      24.0548    47.673675    21714.098 
 4398000      8021680    9964.9649   -28368.662    278.56339   0.94657771   -18403.698    6771.0845    799.89172   -100.14646   -200.12979    830.60702      23.9748    47.706469     21780.17 
 4400000      8029680    9942.3023   -28103.226    277.92987    1.0226354   -18160.923    6668.0386    796.68425   -101.82186   -199.23811    827.50789      23.8948    47.537923     21846.45 
 4402000      8037680    9789.2259   -28108.688    273.65073   0.87794058   -18319.462    6814.1798    800.99602   -100.45697   -196.68598    830.88603      23.8148    47.554441    21912.779 
 4404000      8045680    9870.1754   -28264.467    275.91362   0.95128217   -18394.292    6856.6715    804.13431    -101.5181   -200.08314      834.848      23.7348     47.58764    21979.284 
 4406000      8053680    9842.9455   -28027.806    275.15242   0.87520884    -18184.86     6738.457    803.62334   -101.10656   -198.79084    833.99688      23.6548    47.483323    22045.883 
 4408000      8061680    9934.8577   -28080.664    277.72176   0.86410812   -18145.807    6701.5537     806.0432   -101.69623   -199.67524      836.611      23.5748    47.478012    22112.758 
 4410000      8069680    9856.3613   -27907.683    275.52745   0.95333551   -18051.322    6668.7564    806.28409    -102.7795   -198.93741    836.79971      23.4948    47.403403    22179.725 
 4412000      8077680    9765.7336   -27879.219    272.99402   0.97565145   -18113.485    6800.5013    805.78507   -105.31747   -199.81467    836.84363      23.4148    47.324658    22246.932 
 4414000      8085680     9880.975   -27862.494    276.21551    1.0572127   -17981.519    6672.0888    809.26061   -103.70371   -197.24207    839.38169      23.3348    47.317174    22314.166 
 4416000      8093680    9942.4711   -27889.008    277.93459   0.87528425   -17946.537    6714.1465    807.11674   -107.91023   -201.99826    838.97876      23.2548    47.225662    22381.546 
 4418000      8101680    9795.4504   -27808.661    273.82473   0.88945042   -18013.211    6927.7139    804.45118   -103.81605   -201.29306    835.72626      23.1748    47.052733    22448.946 
 4420000      8109680    9812.2701   -27998.699    274.29491   0.96352868   -18186.429    7082.1822    807.32695   -106.78819   -202.73959    839.21622      23.0948    47.072447    22516.401 
 4422000      8117680    9913.2962   -27948.345    277.11903   0.93682333   -18035.049    6816.5394    814.63373   -109.21514   -203.53858    846.74909      23.0148    47.207671    22583.949 
 4424000      8125680    9888.3424   -27732.568    276.42146   0.77308128   -17844.226    6737.0072    812.74906   -109.25052    -204.4903     845.1704      22.9348    47.082566    22651.532 
 4426000      8133680     9934.327   -27778.483    277.70693   0.89614589   -17844.156    6762.9546    814.66596   -108.19312   -203.77737    846.70632      22.8548    47.046449    22719.321 
 4428000      8141680    9905.5233   -27838.026    276.90174   0.99937583   -17932.503    6872.1799    816.10983   -106.72308   -206.55228    848.58053      22.7748    47.019998    22787.201 
 4430000      8149680    9871.7201   -27726.253     275.9568    1.0248377   -17854.532    6779.9431    819.19266   -112.40484   -205.77622     852.0888      22.6948    47.040234    22855.306 
