LAMMPS (29 Oct 2020)
################################################################################################################
# Template input file to run umbrella sampling
# run 200000 steps0
# read from restart file
# deleted velocity line
# reset timestep to 0 befre running the simulation
################################################################################################################

################################################################################################################
# VARIABLES
################################################################################################################
clear
variable rcut        equal 17.5     #est. 3.5*diameter
variable epsilon     equal 0.8126   #unit conversion
variable sigma       equal 4.7
variable shift       equal 23.5     #center particle radius
variable epsilon_cp  equal 0.5067
variable sigma_cp    equal 5.2
variable epsilon_pp  equal 1.1926
variable sigma_pp    equal 4.7
variable bondKeq     equal 2.9876
variable bondReq1    equal 23.5
variable bondReq2    equal 4.7
variable dt          equal 4.0
variable startTemp   equal 275.0
variable stopTemp    equal 275.0
variable Tdamp       equal 100.0
variable springKeq   equal 35.0
variable velocity    equal -0.0001
variable springX     equal 200.0
variable springY     equal 0.0
variable springZ     equal 0.0
variable springReq   equal 0.0

################################################################################################################
# SETUP
################################################################################################################
units		real
atom_style	molecular
atom_modify     sort 0 0.0       #print out in frames in order

read_data       data.twoParticles
Reading data file ...
  orthogonal box = (0.0000000 0.0000000 0.0000000) to (1000.0000 1000.0000 1000.0000)
  2 by 2 by 2 MPI processor grid
  reading atoms ...
  12002 atoms
  scanning bonds ...
  600 = max bonds/atom
  reading bonds ...
  12000 bonds
Finding 1-2 1-3 1-4 neighbors ...
  special bond factors lj:    0.0      0.0      0.0     
  special bond factors coul:  0.0      0.0      0.0     
   600 = max # of 1-2 neighbors
   600 = max # of 1-3 neighbors
  1200 = max # of 1-4 neighbors
  1800 = max # of special neighbors
  special bonds CPU = 0.052 seconds
  read_data CPU = 0.085 seconds
velocity        all create ${startTemp} 4834834 rot yes mom yes dist gaussian        #turn off rotation and momentum of the particles
velocity        all create 275 4834834 rot yes mom yes dist gaussian        

#read_restart    generic.restart

pair_style	lj/expand ${rcut}
pair_style	lj/expand 17.5
pair_coeff      1 1 0 0 0
pair_coeff      1 2 ${epsilon} ${sigma} ${shift}
pair_coeff      1 2 0.8126 ${sigma} ${shift}
pair_coeff      1 2 0.8126 4.7 ${shift}
pair_coeff      1 2 0.8126 4.7 23.5
pair_coeff      1 3 ${epsilon} ${sigma} ${shift}
pair_coeff      1 3 0.8126 ${sigma} ${shift}
pair_coeff      1 3 0.8126 4.7 ${shift}
pair_coeff      1 3 0.8126 4.7 23.5
pair_coeff      2 2 ${epsilon} ${sigma} 0
pair_coeff      2 2 0.8126 ${sigma} 0
pair_coeff      2 2 0.8126 4.7 0
pair_coeff      2 3 ${epsilon_cp} ${sigma_cp} 0
pair_coeff      2 3 0.5067 ${sigma_cp} 0
pair_coeff      2 3 0.5067 5.2 0
pair_coeff      3 3 ${epsilon_pp} ${sigma_pp} 0
pair_coeff      3 3 1.1926 ${sigma_pp} 0
pair_coeff      3 3 1.1926 4.7 0
special_bonds   lj 0.0 1.0 1.0   #turn off LJ interaction for directly bonded atoms (1-2)
Finding 1-2 1-3 1-4 neighbors ...
  special bond factors lj:    0.0      1.0      1.0     
  special bond factors coul:  0.0      0.0      0.0     
   600 = max # of 1-2 neighbors
   600 = max # of 1-3 neighbors
  1200 = max # of 1-4 neighbors
  1800 = max # of special neighbors
  special bonds CPU = 0.050 seconds

bond_style      harmonic
bond_coeff      1 ${bondKeq} ${bondReq1}
bond_coeff      1 2.9876 ${bondReq1}
bond_coeff      1 2.9876 23.5
bond_coeff      2 ${bondKeq} ${bondReq2}
bond_coeff      2 2.9876 ${bondReq2}
bond_coeff      2 2.9876 4.7
bond_coeff      3 ${bondKeq} ${bondReq2}
bond_coeff      3 2.9876 ${bondReq2}
bond_coeff      3 2.9876 4.7
bond_coeff      4 ${bondKeq} ${bondReq2}
bond_coeff      4 2.9876 ${bondReq2}
bond_coeff      4 2.9876 4.7

neighbor	2.0 bin            #consider cutoff +2 as neighbor
neigh_modify	every 1 delay 0 check yes     #every x step//no delay//check the neighbor list to see if need to update

restart         10 nvt.a.restart nvt.b.restart  #print restart every 10 ?steps?

timestep	${dt}
timestep	4

################################################################################################################
# SIMULATION
################################################################################################################
group           centroid1 id 1           # define group names
1 atoms in group centroid1
group           centroid2 id 6002
1 atoms in group centroid2

fix		1 all nvt temp ${startTemp} ${stopTemp} ${Tdamp}            #last number is how aggressive we want to derive the T back
fix		1 all nvt temp 275 ${stopTemp} ${Tdamp}            
fix		1 all nvt temp 275 275 ${Tdamp}            
fix		1 all nvt temp 275 275 100            
fix             2 centroid1 smd cvel ${springKeq} ${velocity} couple centroid2 auto auto auto ${springReq}
fix             2 centroid1 smd cvel 35 ${velocity} couple centroid2 auto auto auto ${springReq}
fix             2 centroid1 smd cvel 35 -0.0001 couple centroid2 auto auto auto ${springReq}
fix             2 centroid1 smd cvel 35 -0.0001 couple centroid2 auto auto auto 0

thermo_style    custom step time ke pe temp press etotal f_1 f_2[1] f_2[2] f_2[3] f_2[4] f_2[5] f_2[6] f_2[7] # SMD fix computes a "vector" of numbers, have to print the individual elements, as thermo custom only prints scalar numbers (7 quantities described in manual)
thermo          200                  #give an output every x step

dump            1 all custom 200 twoParticles.lammpstrj id type element xu yu zu fx fy fz    #print every x step
dump_modify     1 element A B C     #give element names

run		400000
Neighbor list info ...
  update every 1 steps, delay 0 steps, check yes
  max neighbors/atom: 2000, page size: 100000
  master list distance cutoff = 43
  ghost atom cutoff = 43
  binsize = 21.5, bins = 47 47 47
  1 neighbor lists, perpetual/occasional/extra = 1 0 0
  (1) pair lj/expand, perpetual
      attributes: half, newton on
      pair build: half/bin/newton
      stencil: half/bin/3d/newton
      bin: standard
Per MPI rank memory allocation (min/avg/max) = 195.2 | 196.0 | 197.0 Mbytes
Step Time KinEng PotEng Temp Press TotEng f_1 f_2[1] f_2[2] f_2[3] f_2[4] f_2[5] f_2[6] f_2[7] 
       0            0    9837.4929   -33256.802          275 -0.046709234   -23419.309            0            0            0            0            0    199.95248    199.95288            0 
     200          800     9817.316   -33173.235    274.43597  0.030905517    -23355.92    -63.48263    2.7015793 0.00042638961 -0.00064240055    2.7015794    199.87248    199.95007   0.17159758 
     400         1600    9950.2538   -33227.665    278.15215  0.076459776   -23277.411   -144.61622    3.5674915 0.0013984905 -0.00028805826    3.5674918    199.79248    199.89481   0.42122495 
     600         2400    9925.2684   -33301.324     277.4537   0.13925637   -23376.055   -46.212381    1.4264295 -0.00017714037 -0.00053380624    1.4264296    199.71248    199.75363   0.65103321 
     800         3200    9955.7332   -33252.875    278.30532  0.022964385   -23297.142   -125.28106    2.2581669 -0.00025845596 0.00092728693    2.2581671    199.63248     199.6974   0.66846759 
    1000         4000    9726.7474   -33102.269    271.90419   -0.1169841   -23375.521   -43.581205    2.7043101 -0.00043126481 -0.00056513952    2.7043102    199.55248    199.63014   0.95438696 
    1200         4800    9826.5928   -33183.142     274.6953  -0.04291098   -23356.549   -62.860199    3.8339389 0.00062404847 -0.001412613    3.8339393    199.47248    199.58242    1.1295207 
    1400         5600    9913.8551   -33277.789    277.13465  0.076494273   -23363.934   -56.836002    5.6120578 -0.001206041 -0.00041754622     5.612058    199.39248    199.55322    1.5584842 
    1600         6400    9781.2777   -33291.819    273.42855  0.071126192   -23510.542     87.19455    9.3288809 0.00054233856 0.0029795514    9.3288814    199.31248    199.57942     2.134319 
    1800         7200    9738.4514   -33359.314    272.23137  0.067507202   -23620.862    197.55464    7.3272815 0.0028886712 1.3595174e-05    7.3272821    199.23248    199.44223    2.7067372 
    2000         8000    9787.1487   -33193.719    273.59267   0.11546383   -23406.571   -15.666939     12.46305 -0.0029281655 -0.0042553832    12.463052    199.15248    199.50897     3.492632 
    2200         8800    9902.3506   -33386.111    276.81305 -0.025601092   -23483.761    64.916375    14.706414 0.0041828529 0.0023417354    14.706415    199.07248    199.49306    4.6238037 
    2400         9600    9796.7187   -33508.899    273.86019 -0.070629674    -23712.18    294.77733    12.488801 0.0023350266 -0.0016788618    12.488801    198.99248     199.3497    5.7392531 
    2600        10400    9749.9417   -33518.847    272.55257 -0.023672591   -23768.905    347.69661    13.084925  0.001710191 0.0010989188    13.084925    198.91248    199.28673    6.6968852 
    2800        11200    9898.7095   -33414.959    276.71127   0.15579095    -23516.25    95.553234    6.9125478 -0.0053780584 0.0051222292    6.9125518    198.83248    199.03038    7.5329957 
    3000        12000    9904.0344   -33416.913    276.86012  0.040194124   -23512.879    94.817442    3.0344883 -0.0023653006 0.0030445746    3.0344908    198.75248    198.83958    7.9129654 
    3200        12800    9781.5398   -33435.624    273.43587 -0.056481992   -23654.084    239.70413    2.4020802 0.00014855507 0.0010550697    2.4020804    198.67248    198.74151    8.1487611 
    3400        13600     9826.204    -33429.37    274.68443 -0.061840133   -23603.166    188.40245   -5.3446565 0.0023418881 -0.0057140057     -5.34466    198.59248    198.44017    8.0395509 
    3600        14400    9801.2956   -33512.463    273.98813 -0.029400241   -23711.167    293.64774    -8.741054 0.0035893794 -0.0026629078   -8.7410552    198.51248    198.26313     7.571503 
    3800        15200    9782.7573   -33463.263    273.46991  0.018515599   -23680.506    260.43591   -12.418216  0.010179934 -0.0075832635   -12.418223    198.43248    198.07807    6.6055978 
    4000        16000     9760.061   -33383.221    272.83545  0.059808133    -23623.16    203.27973   -10.598027  0.006799334 -0.00071311966   -10.598029    198.35248    198.05008    5.6433812 
    4200        16800     9753.755   -33528.194    272.65917 -0.093555054   -23774.439    353.68037   -9.2526266 0.0027375256 -0.0029882937   -9.2526275    198.27248    198.00852     4.834149 
    4400        17600    9802.4037   -33466.026    274.01911   0.16029021   -23663.622    241.23248   -10.929739 0.0085415886 -0.00023554924   -10.929743    198.19248     197.8806    4.0586696 
    4600        18400    9965.3811   -33414.085    278.57502  -0.01658449   -23448.704    25.876466   -12.496671 0.0018128004 -0.0027305931   -12.496671    198.11248    197.75583    3.0024026 
    4800        19200    9795.1785   -33376.033    273.81713 -0.010645632   -23580.854    159.57514   -7.8665984 0.0031466049 -0.0018198795   -7.8665992    198.03248    197.80812    2.2361195 
    5000        20000    9871.9394   -33410.899    275.96293    0.1151754    -23538.96    116.27577   -9.7013702 0.0041366427 -0.0031975346   -9.7013716    197.95248     197.6757    1.5097402 
    5200        20800    9870.5575   -33325.433     275.9243 -0.048811806   -23454.875    31.978625   -6.8788893  0.003268702 -0.0011048537   -6.8788902    197.87248    197.67634   0.83924163 
    5400        21600    9824.5092   -33413.811    274.63705  0.044564792   -23589.302    164.89515   -5.7778436 0.0018733514 0.0007138806   -5.7778439    197.79248     197.6278   0.17505484 
    5600        22400    9892.3649   -33420.259    276.53391  -0.10024964   -23527.894    103.55921   -3.4590707 0.0010154102 -0.0018251133   -3.4590714    197.71248    197.61405 -0.066776812 
    5800        23200    9753.8714   -33493.565    272.66242  0.026064109   -23739.694    315.13973   -4.0844209 -0.0016064182 -0.00052148821   -4.0844213    197.63248    197.51618  -0.26605518 
    6000        24000    9844.5602   -33460.521    275.19756  0.062001395   -23615.961    191.20509   -4.2885976 0.0011210487 0.0009999076   -4.2885978    197.55248    197.43035  -0.69691675 
    6200        24800     9850.433    -33295.97    275.36173 -0.0059604785   -23445.537    20.609496    5.1491556 -0.0029752525 0.00068688975    5.1491565    197.47248       197.62  -0.70969611 
    6400        25600    9841.5576   -33387.555    275.11362  -0.01516781   -23545.998    122.66725    3.1026329 -0.0009076762 3.9820571e-05     3.102633    197.39248    197.48152  -0.47078578 
    6600        26400    9708.6386   -33274.236    271.39797  0.030393038   -23565.597    143.71262    2.6210807 -0.0019886144 -0.00068142403    2.6210816    197.31248    197.38777    -0.235128 
    6800        27200    9784.8528   -33337.417    273.52849 -0.091800751   -23552.565    130.79766    3.1692427 -0.0030376064 -0.00024940831    3.1692442    197.23248    197.32343   0.15087355 
    7000        28000    9705.3087    -33403.91    271.30489 0.0031159092   -23698.601    275.23368    6.9595587 -0.0060451313 0.0011146208    6.9595614    197.15248    197.35172   0.49651217 
    7200        28800    9633.8132     -33439.3    269.30628   0.03353738   -23805.487     378.7025     12.36092 -0.0032491089 -0.0047090585    12.360921    197.07248    197.42605     1.206047 
    7400        29600    9790.2775   -33397.971    273.68013 -0.023126133   -23607.694    181.75254    11.308632 -0.0078795867 -0.0033761401    11.308635    196.99248    197.31598    2.1136093 
    7600        30400    9849.2636   -33542.824    275.32904 -0.049198194   -23693.561    271.16349    7.4077476 -0.0048004365 -0.0074648399    7.4077529    196.91248    197.12453    2.9655855 
    7800        31200    9753.2183   -33399.172    272.64417 -0.065745569   -23645.954    224.77587    8.7356275 -0.0050954907 -0.0083841648     8.735633    196.83248    197.08247    3.6144038 
    8000        32000    9811.9269    -33312.54    274.28532 -0.063088101   -23500.613    79.594777    5.8072298 -0.0041965593 -0.007013376    5.8072356    196.75248     196.9188    4.1778875 
    8200        32800      9799.54   -33294.331    273.93905  0.015930558   -23494.791    72.038892    1.3885257 -0.00056025352 -0.0016845482    1.3885268    196.67248    196.71255    4.4859562 
    8400        33600      9890.32   -33440.224    276.47674  0.006228254   -23549.904    125.84257    9.0525871 -0.006409596 -0.0081558976     9.052593    196.59248    196.85152    4.8716288 
    8600        34400    9781.2522   -33599.692    273.42783  0.028250826    -23818.44    396.46975    8.1734547 -0.0049006534 -0.0090162492    8.1734611    196.51248    196.74641    5.6384517 
    8800        35200    9762.7739   -33521.412    272.91129 -0.0064238908   -23758.638     337.8477    7.4774746 -0.0061308851 -0.0093228669     7.477483    196.43248    196.64652    6.1535724 
    9000        36000     9863.182   -33440.003    275.71812 -0.021284561   -23576.821    159.00056    6.9785668 -0.0023970593 -0.0098158498    6.9785741    196.35248    196.55227    6.8112824 
    9200        36800     9802.141   -33484.511    274.01176 -0.011685575    -23682.37    266.01394    1.7596968 -0.0018841699 -0.0013193008    1.7596983    196.27248    196.32316    7.2434106 
    9400        37600    9792.6925    -33390.26    273.74764 -0.022979601   -23597.567    180.31697    1.5214204 -0.0013809354 -0.0011863668    1.5214215    196.19248    196.23635    7.4339643 
    9600        38400    9842.7078   -33432.622    275.14578  0.072129009   -23589.914    172.03567    3.6303435 -0.0016409857 -0.0037904364    3.6303458    196.11248     196.2166    7.6215173 
    9800        39200    9776.7182   -33696.437    273.30109 -0.097894405   -23919.719    501.65678    3.3191937 -0.0021103036 -0.0035074269    3.3191962    196.03248    196.12771    7.9396864 
   10000        40000    9752.1254   -33413.658    272.61361   0.06593253   -23661.532    243.92116     -2.47396 0.0016760787 0.0014729589    -2.473961    195.95248    195.88219    7.8774482 
   10200        40800    9801.4961   -33417.142    273.99374  0.022539794   -23615.646    199.14025    1.3208843 0.00078405603 -0.0013261465    1.3208852    195.87248    195.91062    7.8701519 
   10400        41600    9893.6252   -33489.948    276.56914  -0.02694256   -23596.322    179.90531    -1.808739 -0.0012051602 0.0032832068   -1.8087424    195.79248     195.7412    7.8228931 
   10600        42400      9786.14   -33531.402    273.56447   0.01260949   -23745.262    328.88576   -6.0032465 -0.002040842  0.011475247   -6.0032578    195.71248    195.54136    7.4938567 
   10800        43200    9819.0607   -33527.287    274.48474  0.016772607   -23708.227    291.18611   -6.4231284 -0.00056279701  0.012462099   -6.4231405    195.63248    195.44936    7.0023698 
   11000        44000    9799.0234   -33389.574    273.92461  0.073794853   -23590.551    170.57997   -9.8024135 0.0024112139  0.015840955   -9.8024266    195.55248    195.27281    6.4862188 
   11200        44800    9850.6496   -33491.933    275.36779 -0.031842885   -23641.283    220.32166   -10.744812 1.3833216e-05  0.023537031   -10.744838    195.47248    195.16588    5.7723634 
   11400        45600    9920.7896   -33420.605     277.3285 -0.024103361   -23499.815    78.436504   -12.304652 -0.0057435406  0.027746379   -12.304685    195.39248    195.04132    4.8273215 
   11600        46400    9812.1263   -33485.862    274.29089  0.039795896   -23673.735    253.98526    -7.938571 -0.0027163963  0.015561717   -7.9385867    195.31248    195.08606    4.0086108 
   11800        47200    9786.7577   -33475.012    273.58174  -0.04194058   -23688.254    267.86868   -10.029034 0.00041596225  0.026529176   -10.029069    195.23248    194.94633    3.4000742 
   12000        48000    9787.9764   -33425.471     273.6158 -0.069735394   -23637.494    214.80553   -9.3919087 -0.0035264826  0.027148197   -9.3919486    195.15248    194.88454    2.5793653 
   12200        48800    9823.4272   -33657.788     274.6068 0.0052662835   -23834.361    408.05417   -8.4971066 0.00038652102    0.0250856   -8.4971436    195.07248     194.8301    1.7823222 
   12400        49600    9748.1345   -33539.497    272.50205  0.059664478   -23791.363    365.61496   -5.9905786 0.00054939567  0.016394339   -5.9906011    194.99248    194.82172    1.2735641 
   12600        50400    9803.6498    -33477.48    274.05394   0.05550571    -23673.83     249.5657  -0.34229786  0.000158231 0.0006663834  -0.34229855    194.91248     194.9031   0.82547757 
   12800        51200    9898.3851   -33490.654     276.7022 -0.053136107   -23592.269    170.11232 -0.048813596 1.8584227e-05 0.00010234591 -0.048813707    194.83248    194.83148   0.83025002 
   13000        52000     9821.432   -33573.071    274.55103 -0.048597212   -23751.639    328.69205   -2.4657767 0.0022122791 0.0040333892    -2.465781    194.75248    194.68243   0.76575475 
   13200        52800    9770.1692   -33442.202    273.11801  0.063552009   -23672.033    246.36571   -3.5654734 0.00055093652 0.0043726941   -3.5654761    194.67248    194.57101   0.62224632 
   13400        53600    9783.9981   -33494.888    273.50459 -0.0041604794   -23710.889    285.53923   -2.4504928 -0.0015703217 0.0042634192    -2.450497    194.59248    194.52286   0.41969894 
   13600        54400    9761.7033   -33541.733    272.88136  0.050594722    -23780.03    356.19983   -1.4066856 -0.00069614986 0.0022550648   -1.4066876    194.51248    194.47269    0.3200305 
   13800        55200    9678.4352     -33423.1    270.55366 -0.0009058639   -23744.665     322.8619   -3.3777417 -0.0029741283  0.002394466   -3.3777439    194.43248    194.33637  0.060558677 
   14000        56000    9906.1731   -33415.083     276.9199 -0.033581005    -23508.91    86.766307   0.58163035 0.00043515159 -0.0005500967   0.58163077    194.35248     194.3695  -0.12703494 
   14200        56800    9759.5131   -33655.154    272.82013    0.0361293   -23895.641    469.98175    8.2328352 0.0057331727   -0.0124589    8.2328466    194.27248     194.5081   0.29794711 
   14400        57600    9909.4524   -33488.225    277.01158   0.13505928   -23578.773    151.67058    7.3879524  0.008421057 -0.0090080704    7.3879627    194.19248    194.40396   0.84024108 
   14600        58400    9928.3712   -33561.129    277.54044 0.0028414166   -23632.758    207.07208    7.2172524 0.0066872738 -0.0087632065    7.2172609    194.11248    194.31909    1.3866893 
   14800        59200    9916.3049   -33575.809    277.20313 -0.051127404   -23659.504    237.34138    10.566263 0.0088343714 -0.012715285    10.566274    194.03248    194.33477    2.1245009 
   15000        60000    9916.0303   -33431.688    277.19546 -0.054947077   -23515.657    94.489705    7.8262803 0.0053360859 -0.012780053    7.8262925    193.95248    194.17649    2.8425128 
   15200        60800     9863.179   -33599.952    275.71804  0.023161797   -23736.773    314.53487    4.2710814 0.00012662601 -0.009158145    4.2710913    193.87248    193.99491     3.431154 
   15400        61600    9812.1086   -33565.427     274.2904  0.060217539   -23753.318    329.70363    2.2071154 -0.00031142412 -0.0054619873    2.2071222    193.79248    193.85594    3.6910813 
   15600        62400    9886.1981   -33491.444    276.36152  0.073672501   -23605.245    182.50012    4.7764576 0.00084601397 -0.011074535    4.7764705    193.71248    193.84935    3.9077746 
   15800        63200     9847.746   -33492.032    275.28662 -0.0046089473   -23644.286     224.4451   0.26211034 -4.4508401e-05 -0.00078595975   0.26211153    193.63248    193.64037    4.1065931 
   16000        64000    9873.7526   -33403.605    276.01361 -0.028199366   -23529.852    111.36932   -0.1539431 -1.7473906e-05 0.00038909049  -0.15394359    193.55248    193.54848    4.1210314 
   16200        64800    9752.2519   -33498.436    272.61715 -0.031309779   -23746.184    326.62144   0.84232059 -0.00018629539 -0.0021858795   0.84232344    193.47248    193.49694    4.1786525 
   16400        65600    9883.4773   -33486.269    276.28546  0.069591563   -23602.792    179.53431   0.44208118 -0.00017673476 -0.00093644925   0.44208221    193.39248    193.40551    4.3127417 
   16600        66400    9766.1189   -33559.818    273.00479   0.13335831   -23793.699    368.66928   -2.0736335 0.00055361492 0.0055429155    -2.073641    193.31248    193.25363    4.1245346 
   16800        67200    9941.7134   -33665.068    277.91341 -0.022675814   -23723.355    299.95709   -3.4744515 0.0025898328 0.0064523045   -3.4744584    193.23248    193.13361    3.9559683 
   17000        68000    9847.8114   -33654.161    275.28845  0.042183005   -23806.349    385.84752    3.2573398 -0.0012559767 -0.0048059255    3.2573436    193.15248    193.24595    3.9858828 
   17200        68800     9811.346   -33496.007    274.26908 -0.067844741   -23684.661    265.23153    2.8924479 -0.0038162288 -0.0040923451    2.8924533    193.07248    193.15552    4.3419838 
   17400        69600    9851.3652   -33448.015    275.38779  0.069912122    -23596.65    176.32719   0.12134585 -4.8315335e-05 -0.00016320665   0.12134597    192.99248    192.99635    4.4231214 
   17600        70400    9936.4856   -33555.915    277.76727 -0.0032142005   -23619.429    197.27468    4.6292157 -0.0050947003 -0.0083196613     4.629226    192.91248    193.04514     4.651618 
   17800        71200    9787.2701   -33456.576    273.59606   0.12256688   -23669.306    247.51835    3.9261979 -0.0036126509 -0.0075216126    3.9262068    192.83248    192.94506    4.9935017 
   18000        72000    9765.9373   -33554.336    272.99972 -0.0029672164   -23788.399    368.89431    2.0314072 -0.0026491666 -0.0044413471    2.0314137    192.75248    192.81092    5.2883327 
   18200        72800     9859.124   -33434.534    275.60468 -0.014550907    -23575.41    158.08127   0.33680572 -0.00031139907 -0.00096760261   0.33680725    192.67248     192.6825    5.3273894 
   18400        73600    9933.2582   -33499.665    277.67705  0.041897697   -23566.406    148.26291   -3.9335856 0.0041388765 0.0090821883   -3.9335982    192.59248    192.48049     5.256887 
   18600        74400    9873.9435   -33443.431    276.01895  0.075890687   -23569.488    149.39385   -3.4249746 0.0030107524 0.0077761376   -3.4249847    192.51248    192.41502    4.9242783 
   18800        75200    9832.5249   -33611.237    274.86112   0.11484519   -23778.712    357.21248    2.4040599 0.00068141555 -0.005196899    2.4040656    192.43248    192.50157     4.968894 
   19000        76000    9842.0649   -33608.783    275.12781   0.15789247   -23766.718    345.40985   -1.2682182 0.0003990479 0.0034708229    -1.268223    192.35248    192.31664    4.9496266 
   19200        76800    9825.5156   -33605.993    274.66518 -0.074333644   -23780.478    359.44627  -0.90082796 6.3084642e-05 0.0020644586  -0.90083033    192.27248    192.24714    4.8611973 
   19400        77600    9900.9595   -33606.459    276.77416  -0.04583575   -23705.499    284.47216   -1.2386096 0.00072632512 0.0036097555   -1.2386151    192.19248    192.15749       4.7922 
   19600        78400    9978.2016   -33691.493    278.93341  0.049500261   -23713.291    292.06705   -2.4309825  0.002506719 0.0064630276   -2.4309924    192.11248    192.04342    4.6254815 
   19800        79200    9744.1556   -33688.568    272.39082 -0.017261371   -23944.413    522.07067   -1.5587736 0.0017970458  0.003684913    -1.558779    192.03248    191.98834    4.5116794 
   20000        80000    9831.4128    -33627.17    274.83003  0.062100008   -23795.757    373.70224   -5.9582407 0.0095452601  0.012485926   -5.9582615    191.95248    191.78264     4.227609 
   20200        80800    9865.9047   -33681.372    275.79423  0.058625746   -23815.468    393.99549   -5.3100903 0.0092987546  0.010483461   -5.3101088    191.87248    191.72116     3.680756 
   20400        81600    9922.8746   -33616.908    277.38679 -0.027573622   -23694.034    273.24425   -3.6142858 0.0064681644 0.0065925822   -3.6142976    191.79248    191.68961    3.3322242 
   20600        82400    9818.5807   -33558.269    274.47132 -0.0061987102   -23739.688    318.57087   -3.1181244 0.0060696676 0.0052777074   -3.1181347    191.71248    191.62379    3.0463015 
   20800        83200    9747.4199   -33528.946    272.48207 -0.019301508   -23781.526    358.77334   -7.3046691  0.017399217  0.010319377   -7.3046971    191.63248    191.42417    2.5986245 
   21000        84000    9872.5898   -33650.847    275.98111  0.075683536   -23778.257    352.58257   -5.5572828  0.013954292 0.0075391896   -5.5573055    191.55248     191.3941    2.0938097 
   21200        84800    9920.4524   -33614.379    277.31907  0.070789563   -23693.926    266.12401   -4.6995606 0.0096863953 0.0070792183    -4.699576    191.47248     191.3386    1.7221676 
   21400        85600    9827.7451   -33744.936    274.72751 -0.019516129   -23917.191    492.18559    -4.195638 0.0087292505 0.0095989148   -4.1956581    191.39248      191.273    1.2408318 
   21600        86400    9878.7472   -33478.773    276.15323  -0.12341441   -23600.025    177.77575   -2.0053106  0.003358823 0.0045542795   -2.0053186    191.31248    191.25558    1.0275702 
   21800        87200    9763.7804   -33529.194    272.93942 -0.0090031871   -23765.414    344.20314   -2.8234157  0.005351534 0.0078311598   -2.8234316    191.23248    191.15221   0.90230227 
   22000        88000    9825.0818   -33676.602    274.65306  0.013230447    -23851.52    426.51036   -4.2333326 0.0085695123  0.011665299   -4.2333573    191.15248    191.03192   0.58358737 
   22200        88800    9772.4063   -33759.464    273.18055  0.079909706   -23987.058    560.65699    3.5641764 -0.0086456495 -0.010528734    3.5642024    191.07248    191.17471    0.4983424 
   22400        89600    9825.2796   -33663.949    274.65859  0.022839692    -23838.67     414.8239     1.700689 -0.0035488485 -0.0049327737    1.7006998    190.99248    191.04147   0.66990207 
   22600        90400    9779.6388   -33712.942    273.38273   -0.1080889   -23933.303    511.64588    1.6929196 -0.0037770467 -0.0032086018    1.6929269    190.91248    190.96125   0.86453356 
   22800        91200    9855.1503   -33752.801     275.4936 0.0097569509    -23897.65    475.19396    3.5341285 -0.0075752052 -0.0078980729    3.5341455    190.83248    190.93385    1.1224965 
   23000        92000     9757.622   -33653.683    272.76727 0.0069041939   -23896.061    472.93246    3.1895848 -0.0076899133 -0.0038860686    3.1895965    190.75248    190.84401    1.4301494 
   23200        92800    9875.1017    -33691.54    276.05133  0.034913019   -23816.439    393.16278   0.78503288 -0.0018444294 -0.0010634946   0.78503576    190.67248    190.69531    1.6335679 
   23400        93600    9809.3659   -33570.825    274.21373  0.097016696   -23761.459    339.14757     3.453985 -0.010049453 -0.0055612182    3.4540041    190.59248    190.69156    1.7558841 
   23600        94400    9864.0942   -33539.936    275.74362  0.028015213   -23675.842    255.85046    4.8827156 -0.014980376 -0.010227013    4.8827493    190.51248    190.65239    2.0982011 
   23800        95200    9745.9669   -33643.498    272.44146  -0.12029254   -23897.531    474.86599    10.527031 -0.030031331 -0.022562308    10.527098    190.43248    190.73365    2.6923663 
   24000        96000    9890.6861   -33521.118    276.48698   0.11604694   -23630.432    206.91656    8.9132195 -0.030198508 -0.021051548    8.9132955    190.35248    190.60754    3.4102565 
   24200        96800    9870.8703   -33678.039    275.93304  0.058522442   -23807.169    384.09141    7.6392647 -0.022058639 -0.015119308    7.6393115    190.27248    190.49114    4.1414413 
   24400        97600    9860.2338   -33517.914    275.63571  0.017098966    -23657.68     237.6036    6.6161413 -0.015042477 -0.016908021      6.61618    190.19248    190.38191    4.6904704 
   24600        98400    9898.0449   -33589.154    276.69269 -0.093189217   -23691.109    275.62222    8.3546033 -0.022742061 -0.015134615     8.354648    190.11248    190.35158     5.289314 
   24800        99200      9795.78   -33555.291    273.83395  -0.16251399   -23759.511    345.82704    5.6352774 -0.013343195 -0.011696342    5.6353054    190.03248    190.19389    5.8071373 
   25000       100000    9794.8333   -33608.762    273.80748 -0.073504478   -23813.929    397.95636    4.5118663 -0.011433961 -0.0092341632    4.5118903    189.95248    190.08179    6.3488611 
   25200       100800    9837.7181   -33697.471    275.00629  0.040227027   -23859.753     441.3264    2.4601267 -0.0061926666 -0.0041000202    2.4601379    189.87248    189.94317    6.6580198 
   25400       101600     9814.043    -33729.16    274.34447    0.0374538   -23915.117    495.69607   0.55469902 -0.0015227856 -0.00019210219   0.55470114    189.79248    189.80873    6.7444305 
   25600       102400    9800.0071   -33637.168    273.95211 -0.026359677   -23837.161     418.4649   0.93829331 -0.0030612713 -0.00068838852   0.93829856    189.71248    189.73969    6.7662942 
   25800       103200    9743.4822   -33529.465      272.372 -0.053053449   -23785.983    367.71424            0            0            0            0    189.63248    189.63348     6.927646 
   26000       104000    9819.7376   -33612.822    274.50366  0.028851758   -23793.085    375.03935    3.4679664 -0.010935966 -0.0066159447      3.46799    189.55248    189.65196    7.1492616 
   26200       104800    9798.4655   -33610.566    273.90902 -0.029913212   -23812.101      395.224   -4.9122174  0.013334645 0.0079986157    -4.912242    189.47248    189.33253    7.0681604 
   26400       105600    9812.4066   -33543.645    274.29873 0.0088603476   -23731.238    314.52768  -0.18214337 0.00043506555 0.00046003765  -0.18214447    189.39248    189.38767    6.7234995 
   26600       106400    9848.4657   -33529.612    275.30674  0.078703312   -23681.146    262.82875   -2.2947519 0.0058371453 0.0062267315   -2.2947678    189.31248    189.24731    6.7223372 
   26800       107200    9921.7937    -33582.78    277.35657   0.15720744   -23660.986    240.23953   -7.3558993  0.018172873  0.013913617   -7.3559349    189.23248    189.02271    6.2503354 
   27000       108000     9776.072   -33542.177    273.28302 -0.024798433   -23766.105    345.27208   -11.300759  0.030077811   0.02461886   -11.300826    189.15248       188.83    5.5044111 
   27200       108800    9917.1592   -33697.707    277.22701 -0.018675905   -23780.548    360.29056   -10.629439  0.025162943  0.027745452   -10.629505    189.07248    188.76918     4.540797 
   27400       109600    9837.6565   -33718.863    275.00457 -0.033659454   -23881.206    459.67602   -9.2609037  0.018276817  0.024141956   -9.2609532    188.99248    188.72828    3.7606865 
   27600       110400    9845.2378   -33656.112     275.2165   0.11823444   -23810.874    388.28464   -5.1560878  0.011393943  0.013450634   -5.1561179    188.91248    188.76556    3.1689101 
   27800       111200     9887.788   -33790.157    276.40596  0.043307072   -23902.369    478.40453   -4.0242761  0.012408866  0.011301082   -4.0243111    188.83248     188.7179    2.8318469 
   28000       112000    9919.4953   -33626.772    277.29232  -0.01058409   -23707.276    283.71151   -4.1274279 0.0097249208  0.012481566   -4.1274582    188.75248    188.63495    2.5096466 
   28200       112800    9846.8875   -33650.344    275.26262 0.0094984525   -23803.457    380.35133   -2.9839446 0.0075865658 0.0085165896   -2.9839664    188.67248    188.58762    2.3362037 
   28400       113600    9842.5386   -33742.682    275.14105  -0.01994988   -23900.143    477.96706    -2.048939 0.0052275333 0.0055305854   -2.0489532    188.59248    188.53434    2.1583293 
   28600       114400    9747.1234   -33684.388    272.47379  0.072764637   -23937.265    512.79558   -1.6593177 0.0036962144 0.0045914676   -1.6593282    188.51248    188.46547    1.9815821 
   28800       115200    9864.2127    -33802.44    275.74693   0.12446947   -23938.227    512.70165  -0.60942155 0.0016876836 0.0014722445  -0.60942567    188.43248    188.41547    1.7191597 
   29000       116000    9758.9154   -33688.695    272.80342  0.051680858   -23929.779    505.32304   -2.3404835 0.0062439333 0.0066034947   -2.3405011    188.35248    188.28601    1.6688026 
   29200       116800      9789.78   -33618.154    273.66622 -0.064488878   -23828.374    405.33654   -1.0359048 0.0027227026 0.0027655115   -1.0359121    188.27248    188.24328    1.6584034 
   29400       117600    9702.8282   -33705.427    271.23555 -0.074410153   -24002.599    579.60941   0.38961556 -0.0010393484 -0.00096951237   0.38961816    188.19248    188.20401    1.6281484 
   29600       118400       9901.9   -33656.858    276.80045 0.0083189999   -23754.958    330.29612    3.5357117 -0.0085661506 -0.011239774      3.53574    188.11248     188.2139    1.8529629 
   29800       119200    9860.0542   -33875.919    275.63068  0.020165215   -24015.865    589.24578    1.2776661 -0.003299645 -0.0033031415    1.2776746    188.03248    188.06938    2.0275866 
   30000       120000    9815.5277   -33674.465    274.38598   0.21291031   -23858.937    432.36125   0.76031371 -0.0021945639 -0.0021739961   0.76031999    187.95248     187.9746    2.1381997 
   30200       120800    9768.0875   -33543.779    273.05982 -0.037310052   -23775.692    352.12468   -5.6403161  0.013682875  0.016704325   -5.6403574    187.87248    187.71172    1.8846289 
   30400       121600    9918.0878   -33480.386    277.25297 -0.0030588957   -23562.298    142.61052   -1.1852749 0.0037234575 0.0034346636   -1.1852857    187.79248    187.75901    1.5619821 
   30600       122400    9790.3123   -33549.947     273.6811 -0.073812542   -23759.635    339.96056    -3.114715 0.0094836793 0.0094079622   -3.1147436    187.71248    187.62389    1.3456153 
   30800       123200    9865.4678   -33620.447    275.78202 -0.056861594   -23754.979    332.17828    -2.233399 0.0080337082 0.0063139086   -2.2334224    187.63248    187.56907       1.1263 
   31000       124000    9913.6503   -33741.148    277.12893 0.0098395422   -23827.498    400.37065  0.079510056 -0.00032971748 -0.0001851991  0.079510955    187.55248    187.55515    1.0454746 
   31200       124800    9881.3224    -33800.04    276.22522   0.10772501   -23918.718    490.96132  -0.94635878 0.0035547726 0.0026060798  -0.94636905    187.47248    187.44584    0.9959223 
   31400       125600    9774.4041   -33701.648     273.2364 0.0091271817   -23927.244    501.07956    3.2281255 -0.013590687 -0.0086861527    3.2281658    187.39248    187.48511     1.025439 
   31600       126400    9893.2287   -33548.728    276.55805  0.022563773   -23655.499    232.49379    2.5420868 -0.010425166 -0.0055548264    2.5421142    187.31248    187.38551    1.3961313 
   31800       127200     9826.697   -33552.682    274.69821  -0.12791055   -23725.985     304.5305    4.1094221  -0.01733617  -0.00855198    4.1094676    187.23248    187.35029    1.6530158 
   32000       128000    9782.7973   -33705.366    273.47103 -0.0038990712   -23922.569    498.49795    5.5855863  -0.02177342 -0.011378354    5.5856403    187.15248    187.31247    2.0266979 
   32200       128800    9816.1718   -33634.621    274.40399  0.039491648   -23818.449    391.17437    7.6063126 -0.026432234 -0.019050033    7.6063824    187.07248     187.2902    2.5905011 
   32400       129600    9787.4597   -33714.004    273.60136   0.14507005   -23926.544    500.19339     3.841227 -0.013336126 -0.0077643212     3.841258    186.99248    187.10263    3.1309162 
   32600       130400    9816.4141   -33604.355    274.41076 -0.0028306171    -23787.94    363.64056    6.6790734 -0.027372016 -0.016862718    6.6791508    186.91248    187.10371    3.5505308 
   32800       131200     9977.652    -33487.18    278.91805 0.0090232462   -23509.528    88.509825    6.2657276 -0.026245951 -0.014093966    6.2657984    186.83248     187.0119    4.1501144 
   33000       132000    9784.4045   -33385.803    273.51595 -0.029161164   -23601.399    181.05712    7.1646714 -0.029864077  -0.01877983    7.1647583    186.75248    186.95759    4.7435758 
   33200       132800    9831.8678   -33544.078    274.84275  0.016584109    -23712.21    291.25456    7.9336337 -0.034794358 -0.025132117    7.9337498    186.67248    186.89956    5.2832607 
   33400       133600    9802.3124   -33478.746    274.01655   0.15550254   -23676.434    255.31404    4.8826717 -0.020331028 -0.014258206    4.8827348    186.59248    186.73238    5.7742864 
   33600       134400    9807.7503   -33653.412    274.16857 0.0029636278   -23845.662    425.98786   -1.2390646 0.0045279098  0.002950561   -1.2390764    186.51248    186.47748    5.9728615 
   33800       135200    9909.0502   -33520.247    277.00033 -0.097350421   -23611.197    192.44356  -0.64632125  0.002467053 0.0017324509  -0.64632828    186.43248    186.41441    5.9247718 
   34000       136000    9687.8762    -33494.39    270.81757 -0.025109837   -23806.514    388.17077     2.194275 -0.0068616654 -0.0047485312    2.1942908    186.35248    186.41557    5.8981554 
   34200       136800    9817.4334   -33554.248    274.43925  0.036804858   -23736.814    316.12346    2.1507345 -0.0077040447 -0.0066637918    2.1507586    186.27248    186.33433    6.0285422 
   34400       137600    9788.6778   -33714.231    273.63541  0.089460747   -23925.553    505.03867  -0.48215291 0.0015831247 0.0011673907  -0.48215693    186.19248     186.1791    6.2228586 
   34600       138400    9959.7597   -33618.409    278.41788 0.0029817701   -23658.649    238.32328   -4.1877295  0.012945673 0.0091640059   -4.1877596    186.11248    185.99323    6.0829527 
   34800       139200    9862.5913    -33528.35    275.70161  0.030610553   -23665.758    246.60251   -2.8624926   0.01086842 0.0077695175   -2.8625238    186.03248    185.95109    5.6800347 
   35000       140000    9860.5918   -33560.803    275.64571  0.032214986   -23700.211    281.60653   -9.1490929  0.035660418  0.026414567   -9.1492005    185.95248    185.69147    5.3125373 
   35200       140800    9855.9328   -33486.441    275.51547  0.073936774   -23630.509    212.62558   -5.8518756  0.020992359  0.018649109    -5.851943    185.87248    185.70568    4.6852817 
   35400       141600    9839.3635    -33619.92    275.05229 -0.039726129   -23780.557    361.22764    -4.467501   0.01469352    0.0153483   -4.4675515    185.79248    185.66523    4.3702935 
   35600       142400    9901.6066   -33688.131    276.79225  0.058476211   -23786.524    363.36829   -6.7903877  0.026173748   0.02627986    -6.790489    185.71248    185.51886    3.7966769 
   35800       143200    9753.7261    -33652.01    272.65836 -0.058073984   -23898.284    473.11864   -4.8709041   0.01605864   0.02126864    -4.870977    185.63248    185.49371    3.2868383 
   36000       144000    9829.6547    -33740.35    274.78089   0.10743404   -23910.696    485.97882    -4.478006  0.017503971  0.017680075   -4.4780751    185.55248    185.42493    2.9954551 
   36200       144800    9968.1263   -33662.309    278.65176 0.0024041843   -23694.183    270.56256   -1.3933895 0.0051415794 0.0055951139   -1.3934102    185.47248    185.43307    2.7144569 
   36400       145600    9844.5464   -33527.891    275.19718   0.05791209   -23683.345    262.03621   -0.6219521 0.0023540823 0.0028067115  -0.62196289    185.39248    185.37511    2.6078105 
   36600       146400    9836.4198   -33607.762       274.97 -0.070410712   -23771.342    350.21768   -1.0669056 0.0043324937 0.0051472075   -1.0669268    185.31248    185.28239    2.4761093 
   36800       147200    9845.7076   -33596.845    275.22964 -0.0069433091   -23751.137    327.37236    -2.032216 0.0075979568 0.0088844984   -2.0322496    185.23248    185.17481    2.2754452 
   37000       148000    9924.0134   -33724.512    277.41862  0.050172306   -23800.498    373.71228   -3.7096943   0.01266312  0.015522998   -3.7097484    185.15248    185.04689    2.0410276 
   37200       148800     9852.398   -33662.061    275.41666  0.029455745   -23809.663    383.25874    1.4915807 -0.0040625653 -0.0070119166    1.4916027    185.07248     185.1155    1.9196352 
   37400       149600    9897.0054   -33719.221    276.66363 -0.041369159   -23822.215    397.39045    -2.127462 0.0060239637 0.0093154755   -2.1274909    184.99248    184.93209    1.9274458 
   37600       150400    9884.3456    -33652.84    276.30973 -0.060504754   -23768.494    345.06634    1.4008452  -0.00429867 -0.0062836688    1.4008659    184.91248     184.9529    1.8442405 
   37800       151200    9753.9318   -33669.075    272.66411 -0.059832137   -23915.143    490.95915    3.5429823 -0.0085116125 -0.012266654    3.5430138    184.83248    184.93411    2.0337002 
   38000       152000    10009.771   -33791.939     279.8159  0.033495903   -23782.168    356.53238    5.9814397 -0.018745514 -0.019992957    5.9815025    184.75248    184.92378    2.4362784 
   38200       152800    9871.0378   -33637.346    275.93772 -0.042838631   -23766.308     340.5415    4.6580179 -0.0094447627 -0.016341784    4.6580561    184.67248    184.80597    2.8258479 
   38400       153600    9771.8945    -33743.15    273.16625   0.02366257   -23971.255    546.59018    4.6624689    -0.011833 -0.017777847    4.6625178    184.59248    184.72609     3.278386 
   38600       154400    9874.7788   -33666.709     276.0423 -0.032359992    -23791.93    370.33664    5.2225494 -0.014689708 -0.024699693    5.2226285    184.51248     184.6621    3.6875405 
   38800       155200    9926.5554   -33591.518    277.48968  0.072860143   -23664.962    244.84662    2.4501449 -0.0053689771 -0.0098044838    2.4501704    184.43248    184.50288    4.0144957 
   39000       156000    9878.0049   -33632.069    276.13248 -0.029397325   -23754.065     333.6337  -0.18227332 0.00046300874 0.00072972034  -0.18227537    184.35248    184.34767     4.130331 
   39200       156800    9893.3219   -33617.329    276.56066  0.034740331   -23724.007    302.44809    3.8740198 -0.009114778 -0.014315804     3.874057    184.27248    184.38357    4.1469547 
   39400       157600    9928.2822   -33729.504    277.53795 -0.014900731   -23801.222      378.732  -0.12601411 0.00024998359 0.00046566163  -0.12601522    184.19248    184.18928    4.2741666 
   39600       158400    9961.3181   -33619.597    278.46144  0.057706741   -23658.278    233.56477  -0.39867029 0.00086004906 0.0014357525  -0.39867381    184.11248    184.10149    4.1654481 
   39800       159200    9928.4043    -33639.49    277.54136  0.038896813   -23711.085    287.09405    3.7360472 -0.0069053192 -0.014077226    3.7360801    184.03248    184.13962    4.4161354 
   40000       160000    9814.8199   -33563.945    274.36619  0.013861037   -23749.125    327.52798    2.0818247 -0.0037234585 -0.0073060621    2.0818409    183.95248    184.01236     4.592647 
   40200       160800     9833.803   -33680.087    274.89685  -0.11536131   -23846.284    424.95243    1.1343124 -0.0026573812 -0.0041889297    1.1343233    183.87248    183.90529    4.6428312 
   40400       161600    9798.0837    -33726.96    273.89835  0.054775844   -23928.876    506.83403   -1.9929007 0.0046490112 0.0060282947   -1.9929152    183.79248    183.73594    4.6316326 
   40600       162400    9714.3749   -33668.759    271.55833  0.011957606   -23954.384    531.97977   -2.2311929 0.0061365235 0.0069578073   -2.2312122    183.71248    183.64913    4.4092537 
   40800       163200    9789.4788    -33713.43     273.6578  -0.10069027   -23923.951    500.97612   -2.0587774 0.0069864395  0.005730947   -2.0587973    183.63248    183.57406    4.2240799 
   41000       164000    9819.3627   -33635.973    274.49318  0.080132498    -23816.61    394.02606    -3.289541 0.0098947499  0.010233937   -3.2895718    183.55248    183.45889    3.9735709 
   41200       164800    9859.0574   -33589.228    275.60282  0.011631702    -23730.17    308.65615    1.9587583 -0.006933029 -0.0062497631    1.9587806    183.47248    183.52884    3.9847557 
   41400       165600    9833.9356   -33700.548    274.90056 -0.046580319   -23866.613    445.62218    5.8769212 -0.022376402 -0.024310644    5.8770141    183.39248    183.56079    4.3769273 
   41600       166400    9964.6448   -33670.037    278.55444  0.084990558   -23705.392    285.23286     4.008628 -0.016670439 -0.017868599    4.0087025    183.31248    183.42741     4.721046 
   41800       167200    9874.5202   -33684.562    276.03507 0.0036118081   -23810.042    388.79705   -2.3683571 0.0082427863  0.011191185   -2.3683979    183.23248    183.16521    4.8241353 
   42000       168000    9775.5827   -33529.904    273.26934  0.013457099   -23754.322    332.11897    1.6087859 -0.0050386227 -0.0072534265    1.6088101    183.15248    183.19884    4.8834026 
   42200       168800    9792.8954   -33783.384    273.75331  0.015000262   -23990.488    567.09808    4.6287084 -0.012547257 -0.022119866    4.6287783    183.07248    183.20513    5.0672981 
   42400       169600    9840.4979   -33903.488      275.084 -0.015005781    -24062.99    638.74749   0.50244982 -0.0010978782 -0.0022691072   0.50245614    182.99248    183.00723    5.2254515 
   42600       170400    9708.5549   -33547.337    271.39563  0.069181352   -23838.782    414.81036   -9.2475343  0.021794503  0.036774758   -9.2476331    182.91248    182.64866    4.9070081 
   42800       171200    9876.3557   -33469.011    276.08638 0.0073233748   -23592.656    173.43661   -5.0369068  0.012183324  0.019716773   -5.0369601    182.83248    182.68896    4.2773937 
   43000       172000     9817.685   -33527.387    274.44628  -0.17614696   -23709.702    291.41185   -3.8764079 0.0077350125   0.01474651   -3.8764437    182.75248    182.64212    4.0020425 
   43200       172800    9830.1305   -33475.512    274.79419 -0.076007654   -23645.381    224.95379   -3.2313772 0.0072978122  0.012241097   -3.2314087    182.67248    182.58055    3.7210647 
   43400       173600    9767.9271   -33597.774    273.05534   0.11713762   -23829.847    406.59375   -4.5366665 0.0077053911  0.015512201   -4.5366996    182.59248    182.46326    3.3095203 
   43600       174400    9769.5537   -33716.283    273.10081 -0.010267175    -23946.73    522.83991   -2.3938625 0.0058315274 0.0066851121   -2.3938789    182.51248    182.44448    3.0713311 
   43800       175200    9742.9587   -33633.807    272.35737  0.050717672   -23890.849    466.51149   -3.9777521  0.011921319  0.012187113   -3.9777886    182.43248    182.31923    2.7966227 
   44000       176000    9833.6292   -33634.591    274.89199  0.050908407   -23800.961    377.06764    -5.016783  0.013022735  0.011542774   -5.0168132    182.35248    182.20954    2.4989447 
   44200       176800     9822.267   -33487.702    274.57437 -0.021874599   -23665.435    242.07702   -2.8847232 0.0087455577 0.0089184711   -2.8847502    182.27248    182.19046    2.2115854 
   44400       177600    9855.9757   -33495.716    275.51667 -0.016179944   -23639.741    217.95143   0.65060946 -0.0026495919 -0.0019259276    0.6506177    182.19248    182.21147    2.1316234 
   44600       178400    9921.0101   -33565.661    277.33466  0.042583404   -23644.651    221.49409   0.39495417 -0.0016047092 -0.0012992244   0.39495957    182.11248    182.12416    2.0950658 
   44800       179200    9799.2315   -33487.486    273.93043  0.063981629   -23688.255    266.01985   -1.2613859 0.0057069695 0.0039798269   -1.2614051    182.03248    181.99684     2.102617 
   45000       180000    9746.6372   -33577.084     272.4602 -0.076896696   -23830.447    406.27964    2.8477794 -0.012150847 -0.010748678    2.8478256    181.95248    182.03424    2.2120813 
   45200       180800    9851.2455   -33580.188    275.38444 -0.003734492   -23728.942    303.34855    2.6829555  -0.01150388 -0.008624699     2.682994    181.87248    181.94954    2.4343599 
   45400       181600    9709.0125   -33493.019    271.40842   0.06018381   -23784.007     358.3851  -0.86653751 0.0041086491 0.0030274435  -0.86655254    181.79248    181.76812    2.4506439 
   45600       182400    9936.6413   -33650.968    277.77162 0.0015720345   -23714.326    289.77499    2.1541215 -0.0080423852 -0.0087642729    2.1541543    181.71248    181.77443    2.3865989 
   45800       183200    9721.8851   -33478.261    271.76827 -0.015473061   -23756.376    335.44036   -0.2735534 0.0010559002 0.0012908651  -0.27355848    181.63248    181.62506    2.5902736 
   46000       184000    9918.4834   -33402.198    277.26403 -0.077141809   -23483.715    63.415709   0.36181403 -0.0014718832 -0.0016190774   0.36182065    181.55248    181.56322    2.4901682 
   46200       184800    9897.3823   -33713.055    276.67417 -0.022596765   -23815.673    392.18086    2.6560386 -0.0090547547 -0.011119392    2.6560773    181.47248    181.54877    2.5899454 
   46400       185600    9906.9316   -33791.753    276.94111  0.026075309   -23884.821    457.88346    3.0241208 -0.0098698159 -0.012819744    3.0241641    181.39248    181.47928    2.8855092 
   46600       186400    9819.2358   -33749.011    274.48964   0.11364811   -23929.776    502.84314    2.4578414 -0.006544997 -0.011088275    2.4578751    181.31248     181.3831    3.0740923 
   46800       187200    9689.7519   -33585.946    270.87001 -0.050055508   -23896.194     472.1092    2.1157349 -0.0067413202 -0.0085102859    2.1157628    181.23248    181.29333    3.2448435 
   47000       188000    9749.2581   -33443.628    272.53346 -0.071095284    -23694.37    272.40772   -1.3870159 0.0052108761 0.0043059871   -1.3870324    181.15248    181.11325    3.2787376 
   47200       188800    9791.7954   -33567.548    273.72256   0.02903797   -23775.752    353.61069   -2.1186863 0.0093042191 0.0083214421   -2.1187231    181.07248    181.01234    3.1460933 
   47400       189600    9841.9222    -33618.17    275.12382  0.086924426   -23776.248     353.4307    0.6530664 -0.0031565481  -0.00207766   0.65307733    180.99248    181.01154    3.1437507 
   47600       190400      9737.98   -33619.206    272.21819  0.012675935   -23881.226    456.98081   -2.5732381  0.011896142 0.0092232487   -2.5732821    180.91248    180.83936    3.0131595 
   47800       191200    9849.6281    -33627.88    275.33923  0.026646705   -23778.252    354.95642   -2.7489947  0.015978304  0.009398286   -2.7490572    180.83248    180.75433    2.7481807 
   48000       192000    9862.6071   -33638.887    275.70205 -0.052212567    -23776.28    353.26135    -2.430733  0.011968502 0.0091321473   -2.4307796    180.75248    180.68343      2.54232 
   48200       192800    9881.6429    -33563.04    276.23418  0.065021491   -23681.397    257.62775    1.5190838 -0.0066540824 -0.0058853579    1.5191098    180.67248    180.71628    2.5252928 
   48400       193600    9900.3358   -33611.376    276.75673  0.077890158    -23711.04    286.85404    3.5954721 -0.015497471 -0.017559095    3.5955483    180.59248    180.69561    2.7280292 
   48600       194400    9857.4624    -33687.74    275.55823  -0.10835757   -23830.277    406.69959   0.14599261 -0.00066641144 -0.00078055111   0.14599621    180.51248    180.51705      2.83216 
   48800       195200    9903.6836   -33637.409    276.85031 -0.071082619   -23733.725    311.01429   0.72505683 -0.0028558072 -0.0038520316   0.72507269    180.43248    180.45359    2.8925088 
   49000       196000    9831.4341   -33564.186    274.83063  0.027565791   -23732.752    309.54689    1.3935275 -0.0052988813 -0.0073523242     1.393557    180.35248    180.39269    2.9789594 
   49200       196800    9726.9379   -33674.685    271.90951 -0.014438046   -23947.747    525.23755    1.4198435 -0.004848837 -0.007261953    1.4198703    180.27248    180.31345    3.0876202 
   49400       197600    9824.8937   -33587.264     274.6478 -0.025043483    -23762.37     338.4327    4.8195291 -0.017941874 -0.023604573    4.8196203    180.19248    180.33058    3.3396851 
   49600       198400    9640.2005    -33759.32    269.48483 -0.012135505    -24119.12    694.48472    2.0515974 -0.0076590654 -0.011317819    2.0516429    180.11248     180.1715    3.6214532 
   49800       199200    9785.2239   -33644.804    273.53886   0.08831958    -23859.58    434.62757    6.1752656 -0.020354062 -0.033089465    6.1753878    180.03248    180.20932    3.9592286 
   50000       200000     9935.563   -33661.708    277.74148  -0.09098982   -23726.145    303.94698    3.5509783 -0.013109238 -0.021363015    3.5510668    179.95248    180.05434    4.3188042 
   50200       200800    9818.7629    -33763.19    274.47642 -0.068815803   -23944.427    523.46024  -0.31984132  0.001180971 0.0018570973  -0.31984889    179.87248    179.86374    4.4706819 
   50400       201600     9749.159    -33719.95    272.53069 -0.088307113    -23970.79     548.3948   -4.6860123  0.019851372  0.023271625   -4.6861121    179.79248    179.65899    4.1931573 
   50600       202400    9867.1782   -33551.645    275.82983  -0.01333204   -23684.467    260.93355   -5.0777928  0.016264307  0.022893426   -5.0778705    179.71248     179.5678    3.7675378 
   50800       203200    9754.1064   -33804.171    272.66899  0.030720823   -24050.064    627.24453   -3.3054501  0.012267379  0.016317742   -3.3055132    179.63248    179.53843    3.5398181 
   51000       204000    9856.5325   -33596.139    275.53224 -0.0077871873   -23739.607    317.25639  -0.22007906 0.00075884429 0.0010765226    -0.220083    179.55248    179.54659    3.3057005 
   51200       204800     9752.663   -33639.966    272.62864  0.013657827   -23887.303    465.00742   -1.2625398  0.003399256 0.0070750309   -1.2625642    179.47248     179.4368    3.1026399 
   51400       205600    9805.4081   -33615.462    274.10309 -0.043738869   -23810.054    386.18676   -1.6439761 0.0053653792 0.0083328445    -1.644006    179.39248    179.34591    2.9272262 
   51600       206400    9802.6367   -33764.276    274.02562  0.019524984    -23961.64    537.11263  -0.35345849 0.0010418635 0.0017376565  -0.35346429    179.31248    179.30278    2.8879988 
   51800       207200    9772.4148    -33656.02    273.18079  0.015239182   -23883.605    459.79579  -0.32584035 0.0011046506 0.0016025722  -0.32584616    179.23248    179.22357    2.9138538 
   52000       208000     9897.244   -33705.053     276.6703 -0.022040408   -23807.809     385.9852   -1.4778677 0.0052642199 0.0076734799    -1.477897    179.15248    179.11065    2.9452313 
   52200       208800    9761.9815   -33605.222    272.88913  -0.00505871   -23843.241    422.96298    0.3986759 -0.0016671187 -0.0022097036   0.39868551    179.07248    179.08427    2.7801375 
   52400       209600    9784.6667   -33553.654    273.52328 0.0068374213   -23768.987     347.7811   -1.0800584 0.0045672097 0.0059785753   -1.0800846    178.99248    178.96202     2.726527 
   52600       210400    9800.8603   -33758.987    273.97596 -0.062950093   -23958.127    535.61641   0.69907209 -0.0026363211 -0.003264437   0.69908469    178.91248    178.93285    2.7790614 
   52800       211200     10017.67   -33799.319    280.03672  0.082400195   -23781.649    357.20768   0.78249971 -0.0032333569 -0.0032176278   0.78251301    178.83248    178.85524     2.750419 
   53000       212000    9929.1756   -33717.116    277.56292    0.1254624    -23787.94    362.68072   0.29053371 -0.0011938551 -0.0010896297   0.29053821    178.75248    178.76118    2.8421697 
   53200       212800    9818.8977   -33762.449    274.48019   0.01063515   -23943.551     519.5276   0.58747921 -0.0026022584 -0.0020147836   0.58748843    178.67248    178.68966    2.9467901 
   53400       213600    9772.4379   -33622.912    273.18143 -0.048126062   -23850.474    429.20295  -0.36260091   0.00144137 0.0010898994  -0.36260542    178.59248    178.58252    3.0066677 
   53600       214400    9881.5764   -33559.372    276.23232  0.013816873   -23677.796    256.99971   -2.2519143 0.0094524512 0.0072607303   -2.2519458    178.51248    178.44854    2.9308588 
   53800       215200     9790.851   -33652.771    273.69616 -0.023680903    -23861.92    439.98524   0.71390531 -0.0028386106 -0.0021211795    0.7139141    178.43248    178.45328    2.8084873 
   54000       216000    9874.8634    -33770.52    276.04466 -0.048634978   -23895.657    472.78941    2.7757292 -0.010915307 -0.0085638056    2.7757639    178.35248    178.43219    3.0032038 
   54200       216800    9842.2708   -33725.791    275.13356  0.039823252    -23883.52    459.75378    2.4330334 -0.011686288 -0.010568421    2.4330844    178.27248    178.34239    3.2250777 
   54400       217600    9781.6616   -33594.485    273.43928 -0.048557208   -23812.823    390.49318  -0.28385011 0.0014347637 0.0014064237  -0.28385722    178.19248    178.18477    3.3783702 
   54600       218400    9700.8797   -33554.631    271.18108  -0.10339846   -23853.751    434.56024   0.88918726 -0.0050131718 -0.0045881563   0.88921323    178.11248    178.13828    3.2932705 
   54800       219200         9879   -33544.355     276.1603 0.00065972901   -23665.355    246.09919    4.2060229  -0.02352755   -0.0251119    4.2061637    178.03248    178.15305     3.514074 
   55000       220000    9942.3163   -33652.775    277.93026 -0.016404214   -23710.458    287.29376    3.7943155  -0.02063297 -0.024332426    3.7944496    177.95248    178.06129     3.974421 
   55200       220800     9830.165   -33659.422    274.79515    0.1650786   -23829.257    404.74002   -1.2293669 0.0068007976 0.0069383497   -1.2294053    177.87248    177.83775    4.0238379 
   55400       221600    9819.0654   -33669.232    274.48487  0.063455752   -23850.166    427.02693    1.8694574 -0.010488266 -0.012037678    1.8695256    177.79248    177.84629    4.0169746 
   55600       222400    9895.1227   -33654.328      276.611   -0.0896359   -23759.205    340.00036    2.8453108 -0.014819138 -0.018053697    2.8454067    177.71248    177.79418     4.162739 
   55800       223200     9882.911   -33663.729    276.26963 -0.033818725   -23780.818    362.15955    1.9755667 -0.010468156 -0.012112639    1.9756316    177.63248    177.68932    4.4418206 
   56000       224000    9738.2227   -33582.291    272.22497   0.04681632   -23844.069    422.25858    5.8300844 -0.028193157 -0.035834292    5.8302627    177.55248    177.71946    4.6652121 
   56200       224800    9809.9468    -33816.81    274.22997   0.05096275   -24006.863    583.50314    1.0105554 -0.0053025648 -0.0056396275     1.010585    177.47248    177.50175    5.0325747 
   56400       225600    9971.2506   -33580.232     278.7391 -0.0025165519   -23608.981    185.73051    1.4305072 -0.0070203653 -0.0076659929     1.430545    177.39248    177.43375    5.0841666 
   56600       226400    9924.5425   -33816.444    277.43341 -0.042830256   -23891.901     471.3321   -1.7853199 0.0083568196  0.010463134   -1.7853702    177.31248    177.26187    5.0839577 
   56800       227200    9833.6169   -33527.131    274.89165 -0.036454031   -23693.514    274.91455   -1.5809042 0.0078571217 0.0092259705   -1.5809507    177.23248    177.18771    4.9800773 
   57000       228000    9730.1496   -33587.362     271.9993  -0.14880047   -23857.213    437.10442   -1.6133964 0.0088606331 0.0082471819   -1.6134418    177.15248    177.10678    4.8473223 
   57200       228800    9746.5194   -33625.519     272.4569  0.070991312   -23878.999     455.7586   -4.6557954  0.026514779  0.025942322   -4.6559432    177.07248    176.93985    4.6121091 
   57400       229600    9820.1696   -33629.752    274.51574  0.021334646   -23809.582    386.56517   -3.6274573  0.021323805  0.018793564   -3.6275687    176.99248    176.88923    4.3670965 
   57600       230400    9950.6958   -33765.516     278.1645  0.026526822    -23814.82    392.90973   -4.0880889  0.022445065  0.019092497   -4.0881951    176.91248    176.79607    4.0083607 
   57800       231200    9886.7545    -33539.02    276.37707 -0.042101924   -23652.266    230.11066   -7.0966068   0.04666592  0.038680256   -7.0968656    176.83248    176.63011     3.479101 
   58000       232000     9796.179   -33581.489     273.8451   0.15292219    -23785.31    362.82138   -5.3908953  0.034542711  0.033540539   -5.3911103    176.75248    176.59885    3.0957145 
   58200       232800    9763.9243   -33717.192    272.94344 -0.033664166   -23953.268    529.81243   -0.6636592 0.0039264361 0.0038336693  -0.66368188    176.67248    176.65392     2.833878 
   58400       233600     9668.376   -33655.677    270.27246 -0.086096726   -23987.301    564.41027     1.887206 -0.011164168 -0.011155386    1.8872719    176.59248     176.6468    2.8227922 
   58600       234400    9712.4691   -33588.003    271.50505 -0.051441619   -23875.534    452.12098    4.9464741 -0.032772191 -0.026196781    4.9466521    176.51248    176.65421    2.9960999 
   58800       235200    9846.4133   -33723.492    275.24936 -0.073678221   -23877.079    455.67732   -1.2676231 0.0078454449 0.0059007392   -1.2676611    176.43248    176.39666    3.1371047 
   59000       236000    9897.1677     -33639.3    276.66817  0.064551535   -23742.132    320.21495  -0.21521474 0.0012417783 0.00089836409   -0.2152202    176.35248    176.34673    3.1449561 
   59200       236800     9811.066   -33722.552    274.26125  0.021614696   -23911.486    489.38761    2.1891783 -0.011817039 -0.011007369    2.1892378    176.27248    176.33543     3.253642 
   59400       237600    9835.4362   -33733.284    274.94251 -0.034203143   -23897.848    475.99522   -2.0416866  0.011125347 0.0077901691   -2.0417317    176.19248    176.13454    3.2074657 
   59600       238400    9864.1345    -33701.81    275.74475   0.14503815   -23837.675    416.20504   -4.6780989  0.024565516  0.022410353    -4.678217    176.11248    175.97921    2.9897999 
   59800       239200    9755.9113   -33772.333    272.71945 0.0055515251   -24016.422     595.1586   -5.6617221  0.030669749  0.026074138   -5.6618652    176.03248    175.87111    2.6145658 
   60000       240000      9740.75   -33589.536    272.29562  0.026549504   -23848.786    425.81433   -2.7951247  0.014870611  0.013645853   -2.7951976    175.95248    175.87302    2.2409382 
   60200       240800    9809.4726   -33600.465    274.21671  0.030055409   -23790.992    366.89676   -3.4820124  0.020402652  0.016719075   -3.4821123    175.87248    175.77339    1.9751918 
   60400       241600    9812.6356   -33697.959    274.30513 -0.083606171   -23885.323    459.94401  -0.65470893 0.0034700194 0.0038102722  -0.65472921    175.79248    175.77417    1.7552376 
   60600       242400    9884.4017   -33761.872     276.3113   0.03648571    -23877.47    453.37866    2.3940775 -0.012983788 -0.014506273    2.3941566    175.71248    175.78128    2.0541947 
   60800       243200    9829.4925   -33688.469    274.77636 -0.049778693   -23858.977    436.09835   -1.2462524 0.0075899889 0.0070102491   -1.2462953    175.63248    175.59727    2.0168823 
   61000       244000    9762.5353   -33787.025    272.90461 -0.0059356908    -24024.49     600.8369  -0.20060813 0.0012498905 0.0010838073  -0.20061496    175.55248    175.54715    2.0050981 
   61200       244800    9865.0064   -33701.652    275.76912  0.019151809   -23836.646    412.10529   0.71576858 -0.0044844666 -0.0041927042    0.7157949    175.47248    175.49333    1.9964786 
   61400       245600    9859.2725   -33780.292    275.60883  0.042895098   -23921.019     497.2875    1.5634265 -0.0092024879 -0.0082516953    1.5634754    175.39248    175.43755    2.1771878 
   61600       246400    9893.9143   -33720.106    276.57722  0.015700179   -23826.192    401.54689    2.9663486  -0.01917407 -0.016788355    2.9664581    175.31248    175.39763    2.4257454 
   61800       247200    9913.6814   -33766.401    277.12979 -0.018386427    -23852.72    428.23495    3.6944983 -0.023408637 -0.020319308    3.6946283    175.23248    175.33844    2.7557519 
   62000       248000    9867.0476    -33724.04    275.82618  -0.08445959   -23856.992    434.08056    5.9555505 -0.040070077 -0.029943847    5.9557605    175.15248    175.32304    3.0431572 
   62200       248800    9755.6534   -33526.187    272.71224 -0.021515271   -23770.533    348.39221   0.50753782 -0.0031914716 -0.0029294692    0.5075563    175.07248    175.08738    3.4211937 
   62400       249600    9861.0744   -33575.217     275.6592 -0.063364151   -23714.143    292.19042    4.9548161 -0.029201852 -0.027384788    4.9549778    174.99248    175.13445    3.6738915 
   62600       250400    9818.3301   -33607.176    274.46432 -0.050181145   -23788.845    368.61374     3.690378  -0.02214422 -0.021007249    3.6905042    174.91248    175.01832      4.01846 
   62800       251200    9809.4964   -33636.638    274.21738   0.06386694   -23827.142    404.99002   -3.0433032  0.016939964  0.018095669   -3.0434041    174.83248    174.74592    3.9250323 
   63000       252000     9833.147   -33704.691    274.87851  0.043767658   -23871.544    447.37585    2.5957748 -0.014884263 -0.013292962    2.5958515    174.75248    174.82705    3.9140936 
   63200       252800    9767.5262    -33542.18    273.04413  0.071868828   -23774.653    351.52554    3.3304625 -0.020487325 -0.018272068    3.3305757    174.67248    174.76804     4.189223 
   63400       253600    9900.9704   -33524.416    276.77447 -0.044486923   -23623.446    203.24998    3.7686687 -0.021272887 -0.017653834    3.7687701    174.59248    174.70056    4.4550609 
   63600       254400    9817.7641   -33586.825     274.4485 -0.046313952   -23769.061    349.31415    5.6792227 -0.034179042 -0.025572311    5.6793831    174.51248    174.67515    4.7200719 
   63800       255200    9921.3449   -33563.983    277.34402 -0.034564063   -23642.638    221.90553    3.9484067 -0.024829709 -0.017463848    3.9485234    174.43248    174.54569    5.0495089 
   64000       256000    9884.2836   -33766.489      276.308  0.037221776   -23882.206    458.58989    8.1741514 -0.045558204 -0.040458408    8.1743785    174.35248    174.58643    5.7007979 
   64200       256800    9783.4873   -33577.613    273.49031  0.033836935   -23794.126    372.78274    3.6181328 -0.022073503 -0.018787206    3.6182489    174.27248    174.37626     6.089323 
   64400       257600     9863.899   -33495.432    275.73816 -0.039280513   -23631.533    213.58597    4.1502344 -0.025937753 -0.016793944    4.1503495    174.19248    174.31146    6.3756837 
   64600       258400    9833.5389    -33661.24    274.88947  -0.10283884   -23827.701    410.43346    1.0712255 -0.0060101627 -0.004189326    1.0712506    174.11248    174.14349     6.586095 
   64800       259200    9838.8439   -33668.472    275.03777  0.028935314   -23829.628     410.9369   -3.0232462  0.018021579  0.013924355    -3.023332    174.03248     173.9465    6.6127809 
   65000       260000    9899.7861   -33685.024    276.74136 0.0076353486   -23785.238    364.81571   -2.5975556  0.013166387  0.012570346   -2.5976194    173.95248    173.87866    6.4111033 
   65200       260800    9829.4523   -33691.989    274.77523  0.054065785   -23862.537    442.38203     1.345625 -0.0071514435 -0.0062793721    1.3456587    173.87248    173.91133    6.3447637 
   65400       261600    9873.2644   -33745.183    275.99997 -0.024911925   -23871.919    452.22103    -3.209517  0.016718537  0.016386833   -3.2096023    173.79248    173.70118    6.3287174 
   65600       262400    9843.0715   -33711.569    275.15595  -0.10743684   -23868.497    450.79365   -6.3005781  0.033936792  0.032961259   -6.3007557    173.71248    173.53286    5.9257875 
   65800       263200    9824.3782   -33644.783    274.63339 -0.048105651   -23820.405    402.05832   -8.5755085  0.039642445  0.045026759   -8.5757183    173.63248    173.38786    5.3531803 
   66000       264000    9849.3096   -33681.749    275.33033  0.062260824    -23832.44    412.26836   -6.1135981  0.029151744  0.033460623   -6.1137591    173.55248     173.3782    4.7474202 
   66200       264800    9901.8281   -33689.561    276.79844  0.030719978   -23787.732    364.31444   -6.4019709  0.033066804  0.035269198   -6.4021534    173.47248    173.28996    4.1990378 
   66400       265600    9816.4016    -33644.65    274.41041  0.049399939   -23828.248    404.75655   -8.8955284   0.04989857  0.047406194   -8.8957946    173.39248    173.13871    3.7163122 
   66600       266400    9959.6294   -33675.078    278.41424 -0.018759896   -23715.449      292.927   -7.6974297  0.043290757  0.042307641   -7.6976677    173.31248    173.09294    3.0320907 
   66800       267200    9859.1067    -33682.89     275.6042 -0.050115455   -23823.784    400.35875   -8.2864617  0.039818452  0.044337972    -8.286676    173.23248    172.99612     2.474574 
   67000       268000    9818.6523   -33812.783    274.47332 -0.052605016    -23994.13    567.85937   -5.6199125   0.03364867  0.031259581   -5.6201002    173.15248     172.9923    1.9133928 
   67200       268800    9839.6267   -33915.829    275.05965  0.022325543   -24076.202    648.33956   -6.0169193  0.036586851  0.032989867   -6.0171209    173.07248    172.90096    1.5657571 
   67400       269600     9810.462    -33688.25    274.24437   0.10032028   -23877.788    449.91593    -2.002202  0.011565099 0.0094298909   -2.0022576    172.99248    172.93567    1.1775701 
   67600       270400     9974.566   -33840.702    278.83178   0.03142123   -23866.136    437.66828   -5.2468354  0.028740913  0.026819039   -5.2469826    172.91248    172.76296   0.94820818 
   67800       271200    9728.8313   -33813.337    271.96244 -0.034353682   -24084.506    657.59779   -7.4688203  0.044231723  0.040002907   -7.4690584    172.83248    172.61948   0.47281425 
   68000       272000    9829.7178   -33631.352    274.78265 -0.0097127936   -23801.635    374.21222   -2.5454959  0.014327942  0.015148779   -2.5455813    172.75248    172.68015   0.13819915 
   68200       272800    9831.3593   -33652.216    274.82854  0.035782358   -23820.857    393.28489   -2.9412036  0.014936281  0.010933948   -2.9412619    172.67248    172.58884  -0.22129433 
   68400       273600     9822.669   -33711.822    274.58561 -0.0011992925   -23889.153    462.83204    2.2146276 -0.011097148 -0.010629505    2.2146809    172.59248    172.65615  -0.20856614 
   68600       274400    9876.2374    -33551.69    276.08307  -0.12587832   -23675.452    250.98027    1.6033113 -0.0089997808 -0.0080312397    1.6033567    172.51248    172.55869  0.019191175 
   68800       275200    9942.7477   -33706.889    277.94232 -0.044181443   -23764.141    339.98806    5.8767134 -0.032937935 -0.029810001    5.8768813    172.43248    172.60079   0.29787341 
   69000       276000     9757.648   -33783.036    272.76799 -0.054713409   -24025.388    598.54918    8.4521341 -0.047087805  -0.03953388    8.4523577    172.35248    172.59437     0.793575 
   69200       276800    9811.5469   -33737.745     274.2747   0.15964741   -23926.198    497.56632    5.6232208 -0.030574307 -0.029735821    5.6233825    172.27248    172.43355    1.3936681 
   69400       277600    9875.9363   -33732.548    276.07466  0.065464144   -23856.611    428.77893    3.5577743 -0.020036635 -0.019379228    3.5578835    172.19248    172.29453    1.8025928 
   69600       278400    9877.0338   -33746.269    276.10534 -0.052972562   -23869.235    444.00567    1.6905393 -0.0080022209 -0.0096015076    1.6905855    172.11248    172.16118    2.0611826 
   69800       279200    9913.3052   -33710.061    277.11928 -0.038379483   -23796.756    372.39584    2.2063345  -0.01008124 -0.012274408    2.2063917    172.03248    172.09592    2.0263833 
   70000       280000     9835.409   -33781.503    274.94175 -0.073159782   -23946.094     521.1669    3.2916796 -0.015116979 -0.018469867    3.2917661    171.95248    172.04693    2.2850844 
   70200       280800    9919.7847   -33866.236    277.30041 -0.051661998   -23946.452    519.55398    3.7669807 -0.019075931 -0.022967657     3.767099    171.87248    171.98051    2.5991455 
   70400       281600    9782.2047   -33884.016    273.45446  0.018740589   -24101.812    674.14631    5.5706478 -0.030950379 -0.035555643    5.5708473    171.79248    171.95205    2.9119127 
   70600       282400    9936.0609   -33769.575     277.7554 -0.013305266   -23833.514    407.11069    5.4826581 -0.029151783 -0.034839856    5.4828463    171.71248    171.86953    3.3370343 
   70800       283200    9725.2748   -33676.202    271.86303  0.017513572   -23950.927    527.57152    5.0047391 -0.025724299 -0.030219173    5.0048964    171.63248    171.77588    3.7578202 
   71000       284000    9825.4912   -33862.879     274.6645  -0.16147107   -24037.388    614.86478    7.6163583 -0.045455397 -0.050512045    7.6166615    171.55248     171.7705    4.2552412 
   71200       284800    9884.7355   -33797.436    276.32063 -0.039835276     -23912.7    490.06841    6.2710158 -0.039994992 -0.037046395    6.2712527    171.47248    171.65206    4.8558612 
   71400       285600    9836.3952   -33778.762    274.96931  0.040634805   -23942.367    517.84907    8.9596485 -0.056697346 -0.053138305    8.9599855    171.39248    171.64888     5.467244 
   71600       286400    9785.5104   -33738.765    273.54687  0.016533435   -23953.255    531.80383    5.9480369 -0.034372765 -0.034005314    5.9482334    171.31248    171.48283     6.085309 
   71800       287200    9857.5851   -33672.015    275.56166  -0.13018224   -23814.429    396.00885    7.4787792 -0.048408946 -0.041995539    7.4790538    171.23248    171.44657    6.6683166 
   72000       288000    9889.6068   -33712.552    276.45681 -0.087991503   -23822.945    404.60295    9.2861784 -0.061880769 -0.045851606    9.2864978    171.15248    171.41821     7.204702 
   72200       288800    9970.9431   -33671.417     278.7305  0.038644763   -23700.474    280.55432    4.3543378 -0.028993697 -0.023021438    4.3544952    171.07248    171.19729    7.7212201 
   72400       289600     9814.572   -33548.172    274.35926 -0.018460117     -23733.6    314.22485   0.64734504 -0.0042345714 -0.0036947498   0.64736943    170.99248    171.01137    7.9697147 
   72600       290400    9868.6466   -33588.305    275.87088 0.0087818506   -23719.658    300.53543   -5.3402232  0.035546652  0.033967075   -5.3404495    170.91248    170.76029    7.8164127 
   72800       291200    9758.4855   -33691.501    272.79141 -0.021821562   -23933.015    514.12343   -4.9656375  0.032139409  0.030743248   -4.9658367    170.83248      170.691    7.2791615 
   73000       292000    9823.9741   -33654.469    274.62209  0.030641201   -23830.495      409.976      -6.7726  0.041230851  0.036971914   -6.7728264    170.75248    170.55937    6.8194044 
   73200       292800    9756.7432    -33588.91     272.7427  0.085561832   -23832.167     411.4133   -5.3681598  0.033957325  0.032587107   -5.3683661    170.67248     170.5195    6.4470374 
   73400       293600    9826.8625   -33515.276    274.70284 -0.043648168   -23688.414    269.29905   -6.3785586  0.038946594  0.040575639   -6.3788065    170.59248    170.41063     5.984969 
   73600       294400    9892.0435   -33552.505    276.52492 -0.081661986   -23660.461    241.19774   -8.6594594  0.055716312  0.054785227    -8.659812    170.51248    170.26545    5.3680403 
   73800       295200    9848.7556   -33553.332    275.31484  0.024709541   -23704.577    281.40526   -14.588789  0.096759015  0.089346423   -14.589383    170.43248    170.01604    4.4850538 
   74000       296000    9887.3648   -33589.784    276.39413  0.019110928   -23702.419    279.37252   -9.1234212   0.05826479  0.055286944   -9.1237748    170.35248     170.0922    3.5012448 
   74200       296800    9789.8627   -33559.143    273.66853 -0.028039068    -23769.28    347.33852   -4.5277049  0.031340377  0.029321402   -4.5279083    170.27248    170.14351    2.9790628 
   74400       297600    9807.4424   -33523.152    274.15996  0.033236783    -23715.71    293.54593   -3.6356245  0.026107933  0.022406839   -3.6357873    170.19248      170.089    2.6859785 
   74600       298400    9893.1186   -33481.868    276.55498  -0.10159042    -23588.75    165.07433   -7.7081839  0.053888138  0.048120653   -7.7085225    170.11248    169.89263     2.223867 
   74800       299200    9825.9431   -33770.186    274.67713 -0.023095485   -23944.243    520.83959   -5.9762031  0.045193206  0.040220416   -5.9765093    170.03248    169.86212    1.6788863 
   75000       300000    9817.3962   -33744.955    274.43821 -0.038454114   -23927.559     501.4224    -6.861567  0.053194215   0.04311369   -6.8619086    169.95248    169.75682     1.252795 
   75200       300800    9867.1806    -33684.25     275.8299   0.10732367   -23817.069    389.56936    -7.936542  0.055745721   0.05379545   -7.9369201    169.87248    169.64611   0.61198764 
   75400       301600    9787.4069   -33744.215    273.59988  0.016790879   -23956.808    529.79584   -3.7620174  0.029669048  0.025591478   -3.7622215    169.79248    169.68539   0.23043838 
   75600       302400    9790.7085   -33535.485    273.69218 0.0075189596   -23744.776    318.73164   -2.2891748  0.015439598  0.016799901   -2.2892885    169.71248    169.64747 0.0030029698 
   75800       303200    9827.1112   -33635.692    274.70979  0.064850629   -23808.581    383.16495    4.3444798 -0.030895656 -0.029360618    4.3446889    169.63248    169.75701  0.036388976 
[...]
  380800      1523200    9817.9857   -33032.352    274.45469   0.47209404   -23214.366    4751.4824    438.60831    -7.019113   -2.8234502    438.67355    47.632478    60.166408    7810.2514 
  381000      1524000    9816.0711   -33069.948    274.40117   0.63794861   -23253.877    4810.8477    439.56718   -8.3564601   -2.0904985    439.65157    47.552478    60.114351    7845.3468 
  381200      1524800    9814.5977   -33165.042    274.35998   0.71768403   -23350.445     4914.643    441.73556   -8.1463279   -1.8090179    441.81438    47.472478    60.096146    7880.6516 
  381400      1525600    9780.5395   -33121.371    273.40791   0.52565307   -23340.832    4942.1953     441.7961   -8.5570054   -2.1110566      441.884    47.392478    60.018135    7916.1223 
  381600      1526400    9933.0408   -33074.382    277.67097   0.54197186   -23141.341    4777.8424    441.90094   -9.8192284   -2.2338543    442.01567    47.312478    59.941897    7951.4183 
  381800      1527200    9944.1885   -32875.749     277.9826   0.68034818    -22931.56    4607.5902    441.64645   -9.8903279   -2.1078583     441.7622    47.232478    59.854655    7986.6811 
  382000      1528000    9760.9071   -33000.835     272.8591   0.63533997   -23239.928    4927.9324    443.36827   -9.5213196   -2.8087727    443.47939    47.152478    59.823718    8022.1444 
  382200      1528800    9834.7915   -32945.695    274.92448   0.65325697   -23110.903    4823.3415     444.0493   -9.8820315    -2.121848    444.16431    47.072478    59.763287    8057.6482 
  382400      1529600    9839.0685   -32917.894    275.04405   0.66897532   -23078.826    4818.3495    444.61936   -9.2099732   -2.5744652    444.72219    46.992478    59.699226    8093.1834 
  382600      1530400    9913.0653   -33022.972    277.11257   0.66844742   -23109.907     4860.453    446.60075   -9.3002348   -2.4225819    446.70414    46.912478    59.675853    8128.9665 
  382800      1531200    9838.7166    -32948.12    275.03421   0.75695282   -23109.404    4873.6991    448.31369   -8.9782347   -2.0554515    448.40829    46.832478    59.644543    8164.7071 
  383000      1532000    9933.8457   -33015.125    277.69347   0.62371839    -23081.28    4841.4875    451.59028   -9.6370797   -2.3395099    451.69916    46.752478    59.658568    8200.7852 
  383200      1532800    9784.1591   -32853.819    273.50909   0.53357508    -23069.66    4816.3204    455.44138   -9.2298324   -2.3974825     455.5412    46.672478    59.688341    8237.0471 
  383400      1533600    9954.7418   -32805.365    278.27761   0.54085619   -22850.623    4621.5087    456.49964   -8.9520277   -1.5492596    456.59003    46.592478    59.638308    8273.6002 
  383600      1534400    9800.9726   -32770.279     273.9791   0.56704992   -22969.306    4761.5092    457.61857     -8.98462   -2.2573552    457.71233    46.512478    59.590373    8310.3038 
  383800      1535200    9774.9607   -32848.817    273.25196   0.66333971   -23073.856    4822.9253    463.66367   -8.7308899   -1.7322955     463.7491    46.432478    59.682852     8347.074 
  384000      1536000    9800.0634   -32936.543    273.95369    0.7560869   -23136.479    4921.9388    463.54086   -9.8798422   -1.5111801    463.64859    46.352478    59.599981    8384.2127 
  384200      1536800    9773.1987   -32807.227     273.2027   0.72364986   -23034.028    4846.8256    464.21518    -8.939706   -1.9924446    464.30552    46.272478     59.53875    8421.3686 
  384400      1537600    9931.0917   -32886.407    277.61649   0.66038566   -22955.315    4804.5573    464.38454   -9.8558742   -1.6378522      464.492    46.192478    59.464078    8458.5106 
  384600      1538400    9768.8142   -32930.476    273.08014   0.54236448   -23161.662    5021.3212    466.55161   -9.1301874  -0.86468874    466.64174    46.112478    59.445499     8495.765 
  384800      1539200    9780.6599   -32609.248    273.41128   0.62567471   -22828.588     4748.425    464.81774   -9.9537499   -1.6922472    464.92738    46.032478    59.316517    8533.0395 
  385000      1540000    9803.6486   -32870.065    274.05391   0.54983362   -23066.417    4993.3031     467.0505   -9.5635468   -1.0106295     467.1495    45.952478    59.300007    8570.3499 
  385200      1540800    9912.0101   -32767.937    277.08308   0.72848024   -22855.927    4764.2319    471.26197   -9.9376138   -1.2302016    471.36834    45.872478    59.340545     8607.932 
  385400      1541600    9918.6719   -32628.656     277.2693   0.75228952   -22709.984    4669.2087    470.28291   -9.7041627    -1.228622    470.38462    45.792478    59.232439    8645.4644 
  385600      1542400    9932.8367   -32692.361    277.66527   0.73222068   -22759.525    4697.0488    474.69872   -9.3870916   -1.6919677    474.79454    45.712478    59.278436    8683.3036 
  385800      1543200    9808.4945   -32711.566    274.18937     0.571029   -22903.071    4896.2531    473.40184     -9.24966   -1.5910608    473.49487    45.632478    59.161303     8721.278 
  386000      1544000    9812.2073   -32785.522    274.29316   0.62986637   -22973.315    4967.7857    476.10524   -9.6893354    -2.135387    476.20861    45.552478    59.158838    8759.2222 
  386200      1544800    9922.5492   -32760.427    277.37769   0.67473277   -22837.878    4878.8455    475.29815   -10.374467   -1.6438287     475.4142    45.472478    59.056141    8797.2239 
  386400      1545600    9929.4974   -32936.161    277.57192   0.62458506   -23006.664     5048.595    477.78629   -10.830083   -2.5065971    477.91559    45.392478    59.047609    8835.3684 
  386600      1546400    9717.8052   -32894.086    271.65422   0.75465981   -23176.281    5210.5858    481.03933   -10.632232   -2.1536865    481.16164    45.312478    59.060353    8873.6917 
  386800      1547200    9906.3174    -32701.26    276.92394   0.64410144   -22794.943    4883.5497    480.04664   -10.463624   -1.9990289    480.16483    45.232478    58.951873    8912.1652 
  387000      1548000    9826.1292   -32820.347    274.68234   0.66391939   -22994.218    5121.5373    480.23883   -10.999297   -1.8084114    480.36818    45.152478    58.877683    8950.6436 
  387200      1548800    9951.7567   -32653.564    278.19416    0.6213438   -22701.807    4819.4599    483.76689   -10.350935   -2.8666174     483.8861    45.072478    58.898195    8989.2125 
  387400      1549600    9709.7682   -32619.962    271.42955   0.63474707   -22910.194    5023.5055     486.8168   -11.519878   -2.9099908    486.96178    44.992478    58.906072    9027.9992 
  387600      1550400    9794.1156   -32747.628    273.78742   0.65131351   -22953.513    5029.8713    492.20353   -11.518486   -3.2225631    492.34884    44.912478    58.979988    9067.2088 
  387800      1551200    9782.7305   -32731.933    273.46916   0.71230089   -22949.202    5075.5148    491.37998   -11.467902   -3.0273299     491.5231    44.832478    58.876395    9106.4169 
  388000      1552000    9879.2248   -32735.551    276.16658   0.68007453   -22856.326    5007.3131    492.40397   -11.025729   -4.1203608    492.54463    44.752478    58.825582    9145.7411 
  388200      1552800    9892.0732   -32708.099    276.52575   0.63381608   -22816.026    4948.5665    496.51182    -10.61096    -3.955092    496.64094    44.672478    58.862619    9185.2698 
  388400      1553600    9878.5881   -32766.494    276.14879   0.61383903   -22887.906    5105.8736    493.35771   -10.468424   -4.1417293    493.48614    44.592478    58.692482    9224.9833 
  388600      1554400    9747.8595   -32642.802    272.49436   0.66035492   -22894.943    5139.5586    494.18521   -10.332095   -4.7334467    494.31587    44.512478    58.636189    9264.4019 
  388800      1555200     9806.287    -32549.06    274.12766   0.70356309   -22742.773     4992.581    496.47696   -10.939784   -5.3168529    496.62594    44.432478    58.622191    9304.0956 
  389000      1556000    9638.3657   -32367.769    269.43354   0.69567092   -22729.403    4985.6688     498.9043    -10.90957   -5.3256454    499.05199    44.352478    58.611506     9343.982 
  389200      1556800    9745.8457   -32571.544    272.43807   0.56730785   -22825.698    5083.2883    501.86993    -11.18092    -4.428195    502.01399    44.272478    58.616135    9383.9913 
  389400      1557600     9755.479   -32553.695    272.70736   0.53351227   -22798.216    5045.6381    505.36481   -12.775175   -3.7027461    505.53982    44.192478    58.636873    9424.3519 
  389600      1558400    9724.4992   -32582.173    271.84134   0.76433705   -22857.674    5109.8373    507.65141   -12.801584   -2.6346478    507.81963    44.112478     58.62201    9464.9376 
  389800      1559200    9794.9989   -32720.433    273.81211   0.72929588   -22925.434    5176.0224    510.51581   -13.156084   -2.4983165    510.69141    44.032478    58.624061    9505.5845 
  390000      1560000    9761.6628   -32625.796    272.88022   0.76105927   -22864.133    5171.3984    509.40639   -12.973145   -2.0954019    509.57586    43.952478    58.512188    9546.3101 
  390200      1560800    9884.8375   -32408.747    276.32349   0.75209052    -22523.91      4887.32    508.43769    -12.42119   -0.9653496    508.59031    43.872478     58.40403    9587.0947 
  390400      1561600    9792.3451   -32390.767    273.73793   0.61331215   -22598.422    4992.9006    509.13845    -12.32326  -0.60944477    509.28792    43.792478    58.343962    9627.7862 
  390600      1562400    9768.2714   -32535.484    273.06496   0.57635935   -22767.213    5190.6596    509.96545   -12.113316  -0.34170845    510.10941    43.712478    58.287433    9668.6317 
  390800      1563200    9900.0246   -32554.805    276.74803   0.73336793   -22654.781    5107.3308    510.71668   -12.117488  -0.11566265    510.86043    43.632478     58.22889    9709.5115 
  391000      1564000    9775.5423   -32601.118    273.26821   0.66688686   -22825.576    5292.3168    512.40372   -11.688676  -0.97612914    512.53795    43.552478    58.196819    9750.5741 
  391200      1564800    9875.6356   -32575.738    276.06625   0.79825563   -22700.102    5167.1133    515.10079   -10.836685   -1.3941936    515.21666    43.472478    58.193354    9791.8081 
  391400      1565600     9764.208   -32574.464    272.95137   0.69093163   -22810.256    5253.4202    519.47486   -11.789833   -2.4700273    519.61451    43.392478    58.239007    9833.2157 
  391600      1566400    9833.8058   -32399.932    274.89693   0.69431942   -22566.126    5011.7608    522.31842   -12.024112   -2.6599305    522.46358    43.312478    58.240409    9875.0031 
  391800      1567200    9853.1857   -32517.445    275.43868   0.60312204    -22664.26    5080.9654    527.23553   -11.022641   -2.9205074    527.35883    43.232478    58.300273    9917.0325 
  392000      1568000    9784.7853   -32463.195     273.5266   0.58365844    -22678.41    5206.0867    522.64073   -12.624011   -2.3495272    522.79845    43.152478    58.089976    9958.9781 
  392200      1568800    9745.9464   -32576.393    272.44088   0.63417332   -22830.446    5366.8579    524.62783    -13.16136   -1.8841713    524.79627    43.072478    58.067057      10000.9 
  392400      1569600    9854.4069   -32383.801    275.47282   0.81213791   -22529.394    5070.7087    526.94735   -13.845384   -1.3895562    527.13104    42.992478    58.053765     10042.97 
  392600      1570400    9846.4765   -32443.936    275.25113   0.92213955    -22597.46    5199.5341    525.60963   -14.176029  -0.51557791    525.80101    42.912478    57.935764    10085.108 
  392800      1571200    9743.7614   -32316.159     272.3798   0.68482696   -22572.398    5180.1432    528.19228   -13.815457   -1.1057139    528.37408    42.832478     57.92928     10127.31 
  393000      1572000    9767.6517   -32296.728    273.04764   0.60754826   -22529.076    5110.1142    532.95734   -14.797749  -0.73522828    533.16324    42.752478    57.986113    10169.842 
  393200      1572800    9848.3725   -32213.283    275.30413   0.63179461    -22364.91    4970.5981      534.287   -14.122839  -0.26577029    534.47369    42.672478    57.943555    10212.636 
  393400      1573600     9869.124   -32189.808    275.88422   0.72937238   -22320.684    4969.3127    534.12066   -13.984677   0.38930447    534.30385    42.592478    57.858702    10255.229 
  393600      1574400    9915.9511   -32357.318    277.19324   0.79072721   -22441.367    5073.5252    537.84605    -15.13198  -0.97434681    538.05976    42.512478    57.886014    10298.273 
  393800      1575200    9969.4627   -32404.871    278.68912   0.84432226   -22435.409    5086.1975    539.35571   -15.320038   -1.1928122    539.57456    42.432478    57.849294    10341.407 
  394000      1576000    10033.107   -32375.147    280.46825   0.78614427    -22342.04    4980.8102    542.93336   -14.968496    -0.638816    543.14003    42.352478    57.871165    10384.754 
  394200      1576800    9842.0511    -32278.41    275.12742   0.69302645   -22436.359     5034.477    548.47751   -15.292503    -1.601844      548.693    42.272478    57.949821    10428.329 
  394400      1577600    9808.3669    -32269.07     274.1858   0.62659067   -22460.704    5135.7128    546.49974   -13.976672    -2.752227    546.68537    42.192478     57.81246    10472.163 
  394600      1578400    9900.3546   -32004.024    276.75725    0.7406192   -22103.669    4831.4141    545.81829   -14.109023   -0.6068648    546.00096    42.112478    57.712905    10515.717 
  394800      1579200    9859.1441   -32166.303    275.60525   0.69503461   -22307.159    5117.4542    543.24484   -13.982083   -1.2991593     543.4263    42.032478    57.559344    10559.289 
  395000      1580000    9915.4444   -32192.758    277.17908   0.76384445   -22277.313    5144.3462     542.3101   -13.206573  -0.96856153    542.47175    41.952478    57.452071    10602.692 
  395200      1580800    9853.8201   -32093.971    275.45641   0.79976534   -22240.151    5128.5623    543.80929   -11.612257 -0.032900086    543.93326    41.872478    57.413828    10646.201 
  395400      1581600    9845.1315   -32024.388    275.21353   0.71820501   -22179.257    5059.5445    547.23544   -11.858804   0.11207039    547.36393    41.792478    57.431848    10689.897 
  395600      1582400    9776.8022   -32004.411    273.30344   0.63260613   -22227.608    5162.3222    546.58316   -11.348835  -0.30010039    546.70105    41.712478    57.332908    10733.663 
  395800      1583200    9882.3184   -32100.126    276.25307   0.71346759   -22217.808    5152.6305    549.38688   -11.198578   0.81928928    549.50161    41.632478    57.332924    10777.519 
  396000      1584000    9744.7929   -32018.158    272.40864   0.73363124   -22273.365    5203.6253    552.45149    -12.30654   0.50149422    552.58877    41.552478    57.341129    10821.635 
  396200      1584800    9855.2457   -32075.242    275.49627   0.61699252   -22219.997    5161.9303     554.4616    -12.75034  -0.30929875    554.60826    41.472478    57.318828    10865.898 
  396400      1585600    9903.9718    -32223.84    276.85837   0.79986113   -22319.868    5279.3822    555.98543   -13.801602   -2.0476828    556.16048    41.392478    57.283177     10910.29 
  396600      1586400    9927.2806   -32036.345    277.50995   0.86557028   -22109.065    5117.1437    555.57058   -14.254501   -2.1651912    555.75763    41.312478    57.191668    10954.739 
  396800      1587200    9888.0913    -32168.12    276.41444     0.727369   -22280.028    5274.5038     559.2433   -15.364091   -1.7352616      559.457    41.232478    57.217364    10999.403 
  397000      1588000      9788.36   -31926.106    273.62652   0.72538868   -22137.746    5254.7703    554.45419   -15.221757   -2.3777813    554.66819    41.152478    57.000541    11043.996 
  397200      1588800    9834.9294   -31997.858    274.92834   0.69604628   -22162.929    5315.9543    555.00319   -16.365072   -1.1714379    555.24564    41.072478    56.937039    11088.416 
  397400      1589600    9869.5826   -31936.595    275.89705   0.69475086   -22067.012    5253.8807    555.74557    -15.74315  -0.67805531    555.96892    40.992478    56.877704    11132.841 
  397600      1590400    9795.7888   -31961.749    273.83419   0.71282462    -22165.96     5383.412    556.61111   -15.812684   -1.0458854    556.83665    40.912478    56.822497     11177.39 
  397800      1591200    9878.9415   -31884.292    276.15867   0.67898517   -22005.351    5267.9659    556.56843   -15.660403   -0.5896489    556.78902    40.832478    56.741136     11221.91 
  398000      1592000    9688.1904   -31808.196    270.82636   0.67261336   -22120.006    5415.8271    557.22862   -14.840364 -0.080197491    557.42621    40.752478    56.679341    11266.521 
  398200      1592800    9814.6324   -31726.915    274.36095   0.81033113   -21912.283    5260.4836    556.67928   -15.094987   0.26334893    556.88396    40.672478    56.583848     11311.05 
  398400      1593600    9932.5454   -31732.084    277.65713   0.75152114   -21799.539    5150.0665    559.22414   -15.374952   0.26563114    559.43552    40.592478     56.57675    11355.726 
  398600      1594400    9762.9851   -31739.849    272.91719   0.81087297   -21976.864    5381.9026    558.67853    -14.27378   0.12716169    558.86086    40.512478    56.480331    11400.353 
  398800      1595200    9805.5534   -31788.166    274.10715   0.76430327   -21982.613    5373.0296    562.43089   -15.506001    1.0917285    562.64566    40.432478    56.508468     11445.22 
  399000      1596000    9905.6962   -31683.137    276.90657   0.52819887   -21777.441    5262.1278    559.47149   -14.022495   0.60485718    559.64752    40.352478    56.342807    11490.197 
  399200      1596800    9838.2131   -31654.233    275.02013   0.73303445    -21816.02    5305.3712    561.88185   -14.154893  -0.62470762    562.06047    40.272478    56.331749    11534.968 
  399400      1597600    9863.5282   -31857.929     275.7278   0.84728048   -21994.401    5424.3742     568.3535   -14.149534  -0.77129526    568.53013    40.192478    56.436596    11580.209 
  399600      1598400    9915.0995   -31828.504    277.16944   0.68260927   -21913.405    5403.6973    567.44016    -14.09777   -3.5187806    567.62616    40.112478    56.330768    11625.736 
  399800      1599200    9787.0558   -31691.319    273.59007   0.70625373   -21904.263    5498.3678    563.73799   -13.968921   -1.7977558     563.9139    40.032478    56.144704    11670.951 
  400000      1600000    9818.1269   -31692.187    274.45864   0.68141146    -21874.06    5480.9704    565.72292   -13.343368   -2.1714373    565.88442    39.952478    56.121004    11716.142 
Loop time of 5593.3 on 8 procs for 400000 steps with 12002 atoms

Performance: 24.715 ns/day, 0.971 hours/ns, 71.514 timesteps/s
82.6% CPU use with 8 MPI tasks x no OpenMP threads

MPI task timing breakdown:
Section |  min time  |  avg time  |  max time  |%varavg| %total
---------------------------------------------------------------
Pair    | 99.737     | 1027.4     | 2448.9     |2898.0 | 18.37
Bond    | 0.68313    | 6.4673     | 17.102     | 238.9 |  0.12
Neigh   | 2518.5     | 2525.5     | 2532.3     |  12.9 | 45.15
Comm    | 120.6      | 1116.3     | 1648       |1586.6 | 19.96
Output  | 450.41     | 450.53     | 450.72     |   0.5 |  8.05
Modify  | 18.291     | 454.61     | 938.1      |2036.4 |  8.13
Other   |            | 12.43      |            |       |  0.22

Nlocal:        1500.25 ave        3201 max           0 min
Histogram: 4 0 0 0 0 0 0 0 1 3
Nghost:        4445.25 ave        7842 max        1070 min
Histogram: 4 0 0 0 0 0 0 0 0 4
Neighs:       181689.0 ave      445572 max           0 min
Histogram: 4 0 0 0 0 0 1 1 1 1

Total # of neighbors = 1453513
Ave neighs/atom = 121.10590
Ave special neighs/atom = 185.06916
Neighbor list builds = 40000
Dangerous builds = 0

Total wall time: 1:33:13
